/*--------------------------------*- C++ -*----------------------------------*\
| =========                 |                                                 |
| \\      /  F ield         | OpenFOAM: The Open Source CFD Toolbox           |
|  \\    /   O peration     | Version:  5.x                                   |
|   \\  /    A nd           | Web:      www.OpenFOAM.org                      |
|    \\/     M anipulation  |                                                 |
\*---------------------------------------------------------------------------*/
FoamFile
{
    version     2.0;
    format      ascii;
    class       volScalarField;
    location    "400";
    object      nuTilda;
}
// * * * * * * * * * * * * * * * * * * * * * * * * * * * * * * * * * * * * * //

dimensions      [0 2 -1 0 0 0 0];

internalField   nonuniform List<scalar> 
26000
(
0.000420551
0.000268024
0.000156423
9.10024e-05
6.77649e-05
6.77497e-05
6.80023e-05
6.53159e-05
6.00538e-05
5.3814e-05
4.80502e-05
4.40264e-05
3.98286e-05
3.79734e-05
3.8793e-05
3.86625e-05
3.89509e-05
4.04062e-05
4.16389e-05
4.35814e-05
4.54097e-05
4.77056e-05
5.08074e-05
5.35339e-05
5.70718e-05
6.01879e-05
6.31288e-05
6.65198e-05
6.97679e-05
7.16989e-05
7.23727e-05
7.27367e-05
7.29848e-05
7.30739e-05
7.31468e-05
7.2648e-05
7.13605e-05
6.97775e-05
6.81031e-05
6.69626e-05
0.00140919
0.00102476
0.000727056
0.000546123
0.000438961
0.000388366
0.000367027
0.000348568
0.000318605
0.000284464
0.000252241
0.000229877
0.000209504
0.000192628
0.000194903
0.000195223
0.00019503
0.000200904
0.000205603
0.000213986
0.000222141
0.000232689
0.000247876
0.000261222
0.000279127
0.000294777
0.000309562
0.000326462
0.000343471
0.000353974
0.000357724
0.000359495
0.000360354
0.000360669
0.000360844
0.000358555
0.000352389
0.000344944
0.000337505
0.000329865
0.00262518
0.00211386
0.00158307
0.00115321
0.000871885
0.000711471
0.000619865
0.000569908
0.000538427
0.000512713
0.000487047
0.000461607
0.000441456
0.000425418
0.000431006
0.000431534
0.000427205
0.000429391
0.000428516
0.000419631
0.000415127
0.000413366
0.000412988
0.000418978
0.000429028
0.000442932
0.000454172
0.000467624
0.000485516
0.000507987
0.000531644
0.000557628
0.000585202
0.000614892
0.00064624
0.000668777
0.00067394
0.000673396
0.000668204
0.00066021
0.00392949
0.00338204
0.00272699
0.00210653
0.00159276
0.00121811
0.000984879
0.000850756
0.000777676
0.000741052
0.000722838
0.000710664
0.000697179
0.00068061
0.000665944
0.000644216
0.000626976
0.000613411
0.000608278
0.000610866
0.000620123
0.000634256
0.000651567
0.000673659
0.000700824
0.000730639
0.000745842
0.000758181
0.000774187
0.000793358
0.000813455
0.000834181
0.000858185
0.000885012
0.000915434
0.000947577
0.000979683
0.00101059
0.00102799
0.00103239
0.00527362
0.00472362
0.00402685
0.00330151
0.00262951
0.00205688
0.00161007
0.00129474
0.00110835
0.00100593
0.000956709
0.000936366
0.000925475
0.000912532
0.000892862
0.00087456
0.00086326
0.00085735
0.000858262
0.000866292
0.000880126
0.000894246
0.000904826
0.000918798
0.000939553
0.000967499
0.000996177
0.00102634
0.00106016
0.00109715
0.00112946
0.00115641
0.00118432
0.00121165
0.00124053
0.00127072
0.00130289
0.00133591
0.0013714
0.0013996
0.00665276
0.0061082
0.00540661
0.00463873
0.00387499
0.00316719
0.0025466
0.0020423
0.0016646
0.00140855
0.0012684
0.00119731
0.00116194
0.00113761
0.00111924
0.00110762
0.00110358
0.00110465
0.00110909
0.00111306
0.00112168
0.001137
0.00115706
0.00118082
0.00120961
0.00124394
0.0012746
0.00130636
0.00134196
0.00138064
0.00142171
0.00146369
0.00150739
0.0015453
0.00158088
0.00161433
0.00164781
0.00168075
0.00171479
0.00175168
0.00806424
0.00753054
0.00683677
0.00605962
0.00525323
0.00446398
0.00372123
0.0030647
0.00251481
0.00208766
0.00178216
0.00158588
0.00147282
0.00140422
0.00136415
0.00134713
0.00134343
0.00134506
0.00134963
0.00135776
0.0013717
0.00139218
0.00141809
0.0014456
0.00147493
0.00151027
0.00154908
0.00159074
0.0016359
0.00167953
0.00172422
0.00177031
0.00181876
0.00186712
0.00191589
0.00195888
0.0019986
0.0020349
0.00206784
0.00210809
0.0095051
0.00898595
0.00830586
0.00753482
0.00671591
0.00588536
0.00506751
0.00429846
0.0036096
0.00302935
0.00256792
0.00223047
0.00198423
0.00180477
0.00168839
0.00163404
0.00161198
0.00160155
0.00160324
0.00161378
0.00163125
0.00165424
0.00168023
0.00171175
0.00174798
0.00178937
0.00183314
0.00187866
0.00192796
0.00197921
0.002033
0.00208651
0.00214002
0.00219304
0.00224713
0.00229963
0.00234938
0.00239262
0.00242782
0.00247118
0.0109728
0.0104706
0.00980771
0.00905056
0.00823549
0.00739049
0.00653203
0.00569267
0.00489857
0.00419001
0.00358855
0.0031148
0.00273824
0.00243783
0.00221299
0.00206658
0.0019758
0.00192268
0.00190294
0.00190374
0.00191537
0.00193405
0.00196117
0.00199607
0.00203607
0.00207942
0.00212714
0.00217911
0.00223518
0.00229089
0.0023493
0.00240907
0.00247085
0.00253038
0.00258927
0.00264636
0.00270249
0.00275419
0.00279442
0.00284185
0.0124651
0.0119813
0.0113375
0.0105992
0.00979708
0.00895401
0.00807957
0.00720027
0.00633903
0.00553273
0.004812
0.00421232
0.00370856
0.00328349
0.00294433
0.00270292
0.00253267
0.00241121
0.00233206
0.00228476
0.00226422
0.00226664
0.00228602
0.00231585
0.00235182
0.00239698
0.00244771
0.00250167
0.00256014
0.00262117
0.00268567
0.00274968
0.00281557
0.00288123
0.0029466
0.0030082
0.00306791
0.00312431
0.00317043
0.00322256
0.0139798
0.0135157
0.0128934
0.0121762
0.0113921
0.0105606
0.00968633
0.00878994
0.00788999
0.00701904
0.00620732
0.00549977
0.00487753
0.004328
0.00386787
0.00352219
0.00326392
0.0030694
0.00293041
0.00283024
0.00276519
0.00272663
0.00271018
0.00271196
0.00273149
0.00276901
0.00281165
0.00286294
0.00292261
0.00298325
0.00304867
0.00311693
0.00318655
0.00325494
0.00332378
0.00339022
0.00345313
0.00351166
0.00356116
0.00361731
0.0155142
0.0150705
0.0144713
0.0137773
0.0130146
0.0122005
0.0113364
0.0104385
0.00952072
0.00861231
0.00773809
0.00694814
0.00622446
0.00555917
0.00497803
0.00452117
0.00416427
0.00388516
0.00367668
0.00351773
0.00340597
0.00332886
0.00327748
0.00324869
0.00323736
0.00324301
0.00326177
0.00329661
0.00334137
0.00339556
0.003458
0.00352364
0.00359279
0.0036623
0.00373144
0.00379852
0.00386396
0.00392349
0.00397211
0.0040311
0.0170659
0.0166431
0.0160678
0.0153984
0.0146595
0.0138665
0.0130191
0.01213
0.0112092
0.0102817
0.00937058
0.00852136
0.00772034
0.00695678
0.00626374
0.00569642
0.00523482
0.00486118
0.00457187
0.00434341
0.00417543
0.00405302
0.00396332
0.0039037
0.00386397
0.00384508
0.00384036
0.00384759
0.00386574
0.00389492
0.00393693
0.00399179
0.00405153
0.00411402
0.00418015
0.00424385
0.00430716
0.00436616
0.00441149
0.0044697
0.0186327
0.0182306
0.0176797
0.017036
0.0163224
0.0155532
0.0147267
0.0138533
0.01294
0.0120082
0.0110779
0.0101922
0.00933446
0.00849394
0.00770537
0.00703498
0.00647051
0.00599822
0.00561995
0.0053117
0.00507707
0.00489878
0.00476325
0.00466731
0.00459521
0.00455051
0.00452247
0.00450915
0.00450663
0.004512
0.00452714
0.00454984
0.00458769
0.0046309
0.00468245
0.00473725
0.00479285
0.00484676
0.00488568
0.00493972
0.0202122
0.0198307
0.0193043
0.0186866
0.0179994
0.0172557
0.0164529
0.0155998
0.0147013
0.0137755
0.0128397
0.0119351
0.0110412
0.0101441
0.00927883
0.00851952
0.0078598
0.00729051
0.00682069
0.00642541
0.00611529
0.00587186
0.00568102
0.00553949
0.00542938
0.00535409
0.00529915
0.00526367
0.00524052
0.00522722
0.00522176
0.00522068
0.00522669
0.00523914
0.00526129
0.00529286
0.00533291
0.00537265
0.0054012
0.00544758
0.0218023
0.021441
0.0209388
0.0203472
0.0196868
0.0189696
0.0181924
0.0173628
0.0164839
0.0155714
0.0146402
0.0137286
0.0128159
0.0118819
0.0109607
0.0101291
0.00938613
0.00872635
0.00816536
0.00768151
0.00729077
0.00697515
0.00672091
0.00652548
0.00636976
0.00625642
0.00616987
0.00610683
0.00606072
0.00602621
0.00600257
0.00598125
0.00596575
0.00594935
0.00593863
0.0059327
0.00594265
0.00595761
0.00596628
0.00599968
0.0234008
0.0230592
0.0225809
0.0220151
0.0213816
0.0206914
0.0199409
0.0191367
0.0182807
0.0173868
0.0164674
0.0155585
0.0146391
0.0136844
0.0127247
0.0118396
0.011029
0.0102901
0.00964341
0.00907295
0.00859999
0.00820766
0.00788413
0.00762786
0.0074195
0.00726113
0.00713713
0.00704087
0.00696712
0.00690779
0.00686183
0.00682114
0.0067851
0.00674726
0.00670966
0.00667013
0.00663698
0.0066153
0.00658945
0.00660315
0.0250056
0.0246831
0.0242286
0.0236878
0.0230807
0.0224176
0.0216943
0.0209168
0.0200859
0.019214
0.0183118
0.0174125
0.0164945
0.0155327
0.0145507
0.0136281
0.0127645
0.0119598
0.0112386
0.010588
0.0100356
0.00956493
0.00916857
0.00884633
0.0085798
0.00836989
0.00820122
0.00806704
0.00796006
0.00787237
0.00780041
0.00773582
0.00767914
0.00761936
0.00755958
0.00749303
0.00742488
0.00735933
0.00728544
0.00726714
0.0266146
0.0263101
0.0258782
0.0253623
0.0247814
0.0241451
0.0234492
0.0226989
0.0218946
0.021047
0.0201657
0.0192813
0.0183722
0.0174121
0.0164204
0.0154733
0.0145733
0.0137179
0.0129336
0.0122123
0.0115839
0.0110378
0.0105691
0.0101776
0.00984768
0.00958221
0.00936356
0.00918662
0.00904124
0.00891953
0.00881865
0.00872656
0.008645
0.00856237
0.00847932
0.00838878
0.00829234
0.00818841
0.00806438
0.00800037
0.0282263
0.027939
0.0275285
0.0270366
0.0264811
0.0258712
0.0252025
0.0244796
0.0237024
0.0228808
0.0220227
0.021157
0.0202618
0.0193105
0.0183194
0.0173602
0.0164359
0.0155423
0.0147092
0.0139267
0.0132312
0.012615
0.0120751
0.0116152
0.01122
0.0108963
0.0106231
0.0103977
0.0102107
0.0100505
0.00991564
0.00979329
0.0096839
0.00957416
0.00946646
0.00935104
0.00922738
0.00909269
0.00892565
0.00880806
0.0298393
0.0295686
0.0291781
0.028709
0.0281781
0.0275937
0.0269517
0.026256
0.0255061
0.0247111
0.0238779
0.0230333
0.0221556
0.0212176
0.0202352
0.0192738
0.0183353
0.0174175
0.016548
0.0157162
0.0149633
0.0142848
0.0136776
0.0131512
0.0126906
0.0123059
0.0119767
0.0116993
0.0114656
0.0112644
0.0110923
0.0109347
0.0107935
0.0106548
0.0105196
0.0103764
0.0102258
0.0100622
0.00985835
0.00969424
0.0314515
0.0311958
0.0308248
0.0303777
0.0298703
0.0293107
0.0286946
0.0280256
0.0273029
0.0265347
0.0257274
0.0249057
0.0240484
0.0231281
0.0221595
0.0212033
0.0202602
0.0193279
0.0184319
0.0175646
0.0167649
0.016031
0.015364
0.0147766
0.0142524
0.0138062
0.0134205
0.0130888
0.0128049
0.0125581
0.0123449
0.0121507
0.0119748
0.0118027
0.0116366
0.0114646
0.011285
0.0110917
0.0108527
0.0106501
0.0330626
0.0328203
0.0324675
0.0320412
0.0315565
0.0310207
0.0304296
0.0297865
0.0290906
0.0283492
0.0275679
0.0267701
0.025935
0.0250355
0.0240847
0.0231394
0.0221992
0.02126
0.0203491
0.0194563
0.0186197
0.0178406
0.0171224
0.0164777
0.0158959
0.0153897
0.0149465
0.0145616
0.0142258
0.0139308
0.0136733
0.0134382
0.0132243
0.0130177
0.0128184
0.0126145
0.0124029
0.0121778
0.0119055
0.0116675
0.0346698
0.0344405
0.0341051
0.0336985
0.0332353
0.0327223
0.0321553
0.0315374
0.0308675
0.0301524
0.0293973
0.0286238
0.0278119
0.0269351
0.026005
0.025075
0.0241438
0.0232059
0.0222877
0.0213774
0.0205155
0.0197012
0.0189383
0.0182437
0.0176083
0.0170474
0.0165488
0.0161096
0.0157232
0.0153794
0.0150757
0.0147974
0.0145421
0.0142974
0.0140622
0.0138239
0.0135796
0.0133214
0.0130141
0.0127409
0.0362735
0.0360561
0.0357368
0.035349
0.0349061
0.0344148
0.0338708
0.0332772
0.0326326
0.0319433
0.031214
0.0304649
0.0296768
0.0288236
0.0279161
0.0270048
0.0260869
0.0251564
0.0242382
0.0233195
0.0224403
0.0215997
0.020802
0.0200654
0.0193816
0.0187713
0.0182212
0.0177282
0.0172898
0.0168962
0.0165453
0.0162223
0.015926
0.0156416
0.0153683
0.0150934
0.0148138
0.0145204
0.0141764
0.013867
0.0378738
0.0376671
0.0373628
0.0369923
0.0365687
0.0360979
0.0355759
0.0350055
0.0343853
0.0337211
0.0330172
0.0322924
0.0315283
0.0306994
0.0298149
0.0289248
0.0280238
0.027105
0.0261922
0.0252724
0.0243832
0.0235232
0.022699
0.0219288
0.0212061
0.0205501
0.0199519
0.0194108
0.0189217
0.0184785
0.0180799
0.0177112
0.0173719
0.0170462
0.0167332
0.01642
0.0161031
0.0157728
0.0153906
0.0150434
0.0394703
0.0392735
0.0389829
0.0386288
0.0382231
0.0377716
0.0372706
0.0367223
0.0361255
0.0354857
0.0348066
0.0341059
0.0333661
0.0325624
0.0317027
0.0308344
0.0299521
0.029048
0.0281437
0.0272292
0.0263359
0.0254666
0.0246242
0.0238279
0.023071
0.0223772
0.021735
0.0211481
0.0206126
0.0201219
0.0196763
0.0192618
0.0188785
0.0185103
0.0181563
0.0178037
0.017448
0.0170794
0.0166575
0.0162712
0.0410638
0.0408757
0.0405979
0.0402588
0.0398699
0.0394367
0.0389553
0.0384281
0.0378538
0.0372374
0.0365824
0.0359054
0.0351897
0.0344116
0.0335786
0.0327325
0.0318704
0.0309839
0.0300926
0.0291871
0.0282961
0.0274225
0.0265687
0.0257531
0.0249704
0.0242429
0.0235642
0.0229359
0.0223541
0.0218175
0.0213261
0.0208666
0.0204401
0.0200288
0.0196332
0.0192413
0.0188458
0.018438
0.0179753
0.0175485
0.042655
0.0424747
0.0422085
0.0418833
0.04151
0.0410938
0.0406311
0.040124
0.0395711
0.0389772
0.0383456
0.0376917
0.0369996
0.0362467
0.0354397
0.0346176
0.0337774
0.0329106
0.0320355
0.0311426
0.0302584
0.0293856
0.0285256
0.0276959
0.0268952
0.0261422
0.0254307
0.0247654
0.0241414
0.0235619
0.023027
0.0225234
0.0220554
0.0216005
0.0211644
0.0207299
0.0202931
0.0198461
0.019342
0.0188738
0.0442449
0.0440716
0.0438158
0.0435034
0.0431446
0.0427444
0.0422993
0.0418112
0.0412788
0.0407066
0.0400975
0.0394662
0.0387974
0.0380692
0.037288
0.0364904
0.0356731
0.0348277
0.033971
0.0330937
0.0322202
0.0313525
0.0304902
0.0296542
0.0288389
0.0280676
0.0273311
0.0266345
0.0259734
0.0253531
0.0247787
0.0242312
0.02372
0.0232238
0.0227454
0.0222686
0.0217917
0.0213023
0.0207553
0.0202454
0.0458349
0.0456675
0.0454212
0.0451206
0.0447753
0.0443901
0.0439615
0.0434915
0.0429788
0.0424274
0.0418402
0.041231
0.0405851
0.0398815
0.0391256
0.0383525
0.0375587
0.0367357
0.0358992
0.0350398
0.03418
0.0333217
0.0324632
0.0316252
0.0308014
0.0300138
0.0292582
0.0285351
0.0278439
0.0271867
0.0265726
0.0259858
0.0254318
0.0248955
0.0243767
0.0238573
0.0233374
0.0228067
0.0222168
0.0216623
0.0474262
0.047264
0.0470263
0.0467365
0.0464038
0.0460326
0.0456197
0.0451669
0.0446729
0.0441417
0.0435757
0.0429881
0.0423649
0.0416863
0.040955
0.0402061
0.0394361
0.0386363
0.0378213
0.0369814
0.0361377
0.0352918
0.0344411
0.0336057
0.0327788
0.031981
0.0312084
0.0304659
0.0297493
0.0290593
0.0284079
0.0277843
0.0271908
0.0266142
0.0260527
0.0254932
0.0249312
0.0243567
0.0237254
0.0231258
0.0490204
0.0488627
0.0486328
0.048353
0.048032
0.0476741
0.0472761
0.0468397
0.0463638
0.0458519
0.0453065
0.0447399
0.0441388
0.0434838
0.0427775
0.0420531
0.0413073
0.0405315
0.0397391
0.0389198
0.0380941
0.0372628
0.0364231
0.0355938
0.0347681
0.0339653
0.0331813
0.0324224
0.031686
0.0309667
0.0302813
0.0296232
0.0289922
0.0283764
0.0277743
0.0271746
0.026571
0.0259532
0.0252781
0.0246344
0.050619
0.0504653
0.0502425
0.0499719
0.049662
0.0493166
0.0489329
0.0485123
0.0480537
0.0475606
0.0470353
0.0464894
0.0459105
0.045278
0.0445961
0.0438961
0.0431746
0.0424235
0.0416555
0.0408572
0.0400504
0.0392356
0.0384093
0.037589
0.0367678
0.0359639
0.0351729
0.0343998
0.0336475
0.0329045
0.032189
0.0314983
0.0308317
0.0301771
0.0295381
0.0288989
0.0282541
0.0275938
0.0268723
0.0261847
0.0522238
0.0520735
0.0518573
0.0515954
0.0512959
0.0509626
0.0505925
0.0501872
0.0497455
0.0492707
0.0487648
0.0482389
0.047681
0.0470712
0.0464136
0.0457378
0.0450408
0.0443141
0.0435699
0.0427945
0.0420083
0.0412116
0.0404006
0.0395915
0.0387775
0.0379757
0.0371816
0.0363994
0.0356331
0.0348699
0.0341278
0.0334056
0.0327052
0.0320161
0.031339
0.0306626
0.0299779
0.0292753
0.0285089
0.0277761
0.0538363
0.0536891
0.053479
0.0532254
0.0529359
0.0526141
0.0522574
0.051867
0.0514418
0.0509849
0.0504983
0.0499926
0.0494544
0.0488667
0.048233
0.0475815
0.0469088
0.0462068
0.0454863
0.0447343
0.0439701
0.0431927
0.0423986
0.0416023
0.0407975
0.0400002
0.0392059
0.0384181
0.0376408
0.0368604
0.0360952
0.035346
0.0346139
0.0338915
0.0331776
0.0324634
0.0317397
0.0309944
0.0301857
0.029407
0.055458
0.0553136
0.0551094
0.0548637
0.0545839
0.0542735
0.0539298
0.0535541
0.0531452
0.0527059
0.0522384
0.0517511
0.0512328
0.050667
0.0500571
0.0494297
0.0487816
0.0481053
0.0474076
0.0466792
0.0459386
0.0451806
0.0444058
0.0436226
0.0428282
0.0420373
0.0412451
0.0404545
0.0396687
0.0388739
0.0380883
0.0373123
0.0365533
0.0358002
0.0350517
0.0342979
0.033537
0.0327515
0.0319012
0.0310746
0.05709
0.0569486
0.0567501
0.0565122
0.056242
0.0559427
0.0556119
0.0552508
0.0548585
0.0544362
0.053986
0.0535171
0.0530187
0.0524748
0.0518885
0.0512851
0.0506613
0.0500091
0.0493352
0.0486303
0.0479122
0.0471751
0.0464194
0.0456525
0.0448701
0.0440871
0.0432989
0.0425078
0.0417153
0.0409085
0.0401054
0.0393063
0.0385217
0.0377395
0.036958
0.0361678
0.0353679
0.0345444
0.0336542
0.0327808
0.058734
0.0585956
0.0584028
0.0581727
0.057912
0.0576237
0.0573055
0.0569588
0.0565813
0.0561755
0.0557431
0.0552928
0.0548144
0.0542924
0.0537298
0.0531506
0.0525515
0.0519224
0.0512719
0.0505907
0.0498947
0.0491787
0.0484423
0.0476938
0.0469241
0.0461498
0.0453669
0.0445781
0.0437791
0.0429622
0.0421439
0.0413248
0.0405161
0.039706
0.0388932
0.0380703
0.0372332
0.0363719
0.0354413
0.034523
0.0603911
0.0602559
0.0600691
0.0598468
0.0595956
0.0593188
0.0590127
0.0586789
0.058316
0.0579266
0.057512
0.0570805
0.056622
0.056122
0.055583
0.0550281
0.0544518
0.0538463
0.0532196
0.0525628
0.051888
0.0511938
0.0504752
0.0497437
0.0489902
0.0482254
0.0474483
0.0466605
0.0458572
0.0450325
0.0442017
0.0433648
0.0425336
0.0416964
0.0408565
0.0400029
0.0391305
0.0382323
0.0372599
0.0362993
0.0620619
0.0619305
0.0617503
0.061536
0.0612938
0.0610269
0.0607327
0.0604122
0.0600644
0.0596915
0.0592947
0.0588821
0.0584437
0.0579654
0.05745
0.0569172
0.0563637
0.055782
0.0551797
0.0545449
0.0538917
0.053218
0.0525184
0.0518033
0.0510649
0.0503132
0.0495433
0.0487556
0.0479474
0.0471176
0.0462766
0.0454242
0.0445712
0.0437117
0.0428462
0.0419635
0.0410574
0.0401236
0.0391119
0.0381085
0.0637466
0.0636191
0.0634446
0.063238
0.0630052
0.062749
0.0624671
0.0621604
0.0618279
0.0614716
0.0610928
0.0606992
0.0602815
0.0598242
0.05933
0.0588193
0.0582887
0.0577309
0.0571503
0.0565382
0.0559076
0.0552533
0.0545736
0.0538739
0.0531494
0.0524086
0.0516464
0.050862
0.0500516
0.0492167
0.0483668
0.0475012
0.0466299
0.0457497
0.04486
0.0439496
0.0430116
0.0420434
0.040995
0.0399488
0.065445
0.0653214
0.0651532
0.0649548
0.0647317
0.0644867
0.0642175
0.063925
0.0636081
0.0632684
0.0629074
0.0625325
0.0621331
0.0616962
0.0612236
0.0607351
0.0602275
0.0596911
0.0591325
0.0585432
0.0579325
0.057299
0.0566368
0.0559549
0.0552447
0.0545134
0.0537585
0.0529789
0.0521665
0.0513275
0.0504702
0.0495933
0.0487063
0.0478072
0.0468952
0.0459587
0.0449902
0.0439889
0.0429045
0.0418172
0.0671581
0.0670388
0.0668774
0.0666876
0.0664747
0.0662413
0.0659851
0.0657069
0.0654062
0.0650831
0.0647391
0.064381
0.0639999
0.063583
0.0631318
0.0626654
0.0621782
0.0616633
0.0611267
0.0605572
0.0599663
0.0593516
0.0587073
0.0580415
0.057345
0.0566261
0.0558786
0.0551004
0.0542883
0.0534471
0.0525841
0.0516979
0.0507975
0.0498816
0.048949
0.047988
0.0469906
0.0459573
0.0448375
0.0437113
0.0688858
0.0687715
0.0686174
0.0684366
0.0682344
0.0680133
0.0677702
0.0675057
0.0672191
0.0669119
0.0665848
0.0662443
0.0658818
0.0654854
0.0650548
0.0646079
0.0641409
0.0636474
0.0631302
0.0625806
0.0620099
0.0614125
0.0607863
0.0601358
0.0594507
0.0587417
0.0580007
0.0572239
0.0564146
0.055573
0.0547061
0.0538125
0.0529007
0.0519701
0.0510187
0.0500346
0.0490101
0.0479458
0.0467906
0.0456289
0.0706273
0.0705187
0.070373
0.0702017
0.0700098
0.0697996
0.069569
0.0693185
0.0690468
0.0687555
0.0684453
0.0681228
0.0677781
0.0673996
0.0669887
0.0665623
0.0661148
0.0656401
0.0651432
0.0646128
0.0640594
0.06348
0.0628689
0.0622323
0.0615606
0.0608609
0.060126
0.0593515
0.0585444
0.0577033
0.0568342
0.0559349
0.0550137
0.0540702
0.0531017
0.0520956
0.0510457
0.0499514
0.0487651
0.0475678
0.0723811
0.072278
0.0721403
0.0719786
0.0717975
0.0715992
0.0713817
0.071146
0.0708895
0.0706139
0.0703199
0.0700129
0.0696849
0.0693252
0.068933
0.0685242
0.0680951
0.0676398
0.0671604
0.0666483
0.0661137
0.0655497
0.0649548
0.0643311
0.0636689
0.0629767
0.0622464
0.0614783
0.0606752
0.059836
0.0589659
0.0580627
0.0571339
0.0561793
0.0551956
0.0541676
0.0530949
0.0519747
0.0507587
0.0495262
0.0741457
0.0740484
0.0739189
0.0737677
0.0735981
0.0734119
0.0732071
0.0729842
0.0727419
0.0724816
0.0722043
0.0719136
0.0716017
0.0712579
0.0708832
0.0704931
0.0700817
0.0696429
0.0691815
0.068687
0.0681688
0.0676202
0.067039
0.0664261
0.0657753
0.0650894
0.0643652
0.0636032
0.062805
0.0619688
0.0610992
0.0601936
0.059259
0.0582953
0.0572984
0.0562524
0.055158
0.0540131
0.0527689
0.051502
0.0759193
0.0758274
0.0757057
0.0755642
0.0754059
0.0752328
0.0750414
0.0748321
0.0746039
0.0743579
0.0740948
0.0738199
0.0735239
0.0731966
0.0728386
0.072464
0.0720699
0.0716476
0.0712008
0.0707228
0.0702188
0.0696854
0.069116
0.0685156
0.0678746
0.0671957
0.0664789
0.0657239
0.0649317
0.0640998
0.063232
0.0623256
0.0613868
0.0604158
0.0594076
0.0583462
0.0572321
0.0560638
0.0547932
0.0534919
0.0777
0.0776132
0.0774987
0.0773664
0.0772194
0.0770584
0.0768799
0.0766844
0.0764703
0.0762385
0.0759893
0.0757276
0.0754461
0.0751354
0.0747941
0.074435
0.0740552
0.0736492
0.0732171
0.0727523
0.0722629
0.0717424
0.0711844
0.0705942
0.0699604
0.0692921
0.0685849
0.0678384
0.0670533
0.0662268
0.0653623
0.0644565
0.0635152
0.0625384
0.0615209
0.0604462
0.0593143
0.0581238
0.0568291
0.0554971
0.0794857
0.0794036
0.0792956
0.0791714
0.0790339
0.0788838
0.078718
0.0785366
0.0783366
0.078119
0.0778839
0.0776358
0.0773678
0.0770707
0.0767454
0.0764013
0.0760356
0.0756436
0.0752254
0.0747738
0.0742965
0.0737856
0.0732381
0.0726571
0.0720354
0.0713784
0.0706818
0.0699449
0.069168
0.0683482
0.0674881
0.0665842
0.0656419
0.064661
0.0636359
0.0625498
0.0614021
0.0601893
0.0588744
0.0575143
0.0812743
0.0811965
0.0810945
0.0809776
0.0808487
0.0807087
0.0805548
0.0803861
0.0801995
0.0799955
0.079774
0.0795391
0.0792842
0.0790004
0.078689
0.0783583
0.0780055
0.0776253
0.0772202
0.0767812
0.0763154
0.0758145
0.0752783
0.0747088
0.0740991
0.0734539
0.0727685
0.072042
0.0712743
0.070462
0.0696074
0.0687068
0.0677648
0.0667813
0.0657502
0.0646547
0.0634935
0.0622623
0.060928
0.0595436
0.0830636
0.0829898
0.0828933
0.0827829
0.0826615
0.0825301
0.0823861
0.0822286
0.082055
0.081864
0.0816555
0.0814332
0.0811907
0.0809193
0.08062
0.0803014
0.0799608
0.0795933
0.0791978
0.07877
0.0783148
0.0778274
0.0773042
0.0767473
0.0761503
0.0755174
0.0748438
0.0741283
0.0733704
0.0725666
0.0717185
0.0708223
0.0698819
0.0688971
0.0678617
0.0667585
0.0655859
0.0643393
0.0629874
0.0615802
0.0848514
0.0847812
0.0846898
0.0845853
0.0844707
0.0843468
0.0842112
0.0840631
0.0839003
0.0837217
0.0835251
0.0833143
0.0830838
0.0828237
0.0825337
0.0822259
0.0818965
0.0815399
0.0811574
0.0807425
0.0802999
0.0798255
0.0793156
0.0787717
0.0781879
0.0775677
0.0769063
0.0762023
0.0754548
0.0746601
0.0738195
0.0729287
0.0719911
0.0710064
0.069968
0.0688589
0.067677
0.0664173
0.0650502
0.0636221
0.086635
0.0865683
0.0864817
0.0863828
0.0862744
0.0861572
0.086029
0.085889
0.0857351
0.0855663
0.0853804
0.0851783
0.0849565
0.084707
0.0844296
0.0841336
0.083816
0.0834713
0.0831013
0.0826993
0.0822695
0.0818082
0.0813117
0.0807811
0.0802106
0.0796033
0.0789544
0.0782623
0.0775257
0.0767409
0.0759085
0.0750241
0.0740904
0.0731068
0.0720668
0.0709536
0.0697644
0.068494
0.0671138
0.0656672
0.0884119
0.0883487
0.0882666
0.088173
0.0880704
0.0879593
0.0878379
0.0877052
0.0875591
0.0873987
0.0872218
0.0870286
0.0868161
0.0865768
0.0863106
0.086026
0.0857198
0.0853871
0.0850292
0.0846399
0.084223
0.0837747
0.0832914
0.0827741
0.082217
0.0816227
0.0809866
0.0803067
0.0795815
0.0788071
0.0779837
0.0771065
0.0761776
0.0751961
0.0741558
0.0730402
0.0718459
0.0705671
0.0691762
0.0677134
0.0901796
0.0901197
0.090042
0.0899534
0.0898562
0.0897511
0.0896359
0.08951
0.0893712
0.0892184
0.0890497
0.088865
0.0886614
0.0884319
0.0881763
0.0879025
0.0876074
0.0872863
0.0869403
0.0865634
0.0861591
0.0857236
0.0852535
0.0847494
0.0842055
0.0836244
0.0830011
0.0823337
0.0816203
0.0808569
0.0800431
0.079174
0.0782508
0.0772719
0.0762325
0.0751164
0.0739195
0.0726346
0.0712352
0.0697587
0.0919353
0.0918786
0.0918052
0.0917215
0.0916295
0.09153
0.0914208
0.0913012
0.0911692
0.0910237
0.0908627
0.090686
0.0904909
0.0902708
0.0900253
0.0897619
0.0894775
0.0891676
0.0888331
0.0884683
0.0880763
0.0876534
0.0871962
0.0867052
0.0861746
0.0856066
0.0849964
0.0843416
0.0836404
0.0828884
0.082085
0.0812248
0.0803083
0.0793313
0.0782946
0.0771804
0.0759836
0.0746947
0.0732888
0.0718011
0.0936766
0.0936231
0.0935538
0.0934747
0.0933878
0.0932936
0.0931901
0.0930766
0.0929511
0.0928125
0.0926587
0.0924897
0.0923028
0.0920915
0.0918558
0.0916024
0.0913283
0.0910292
0.0907059
0.0903529
0.0899729
0.0895624
0.089118
0.0886398
0.0881225
0.0875676
0.0869705
0.0863286
0.0856399
0.0848998
0.0841074
0.0832571
0.0823486
0.0813772
0.0803447
0.0792341
0.0780375
0.0767456
0.075335
0.0738384
0.0954011
0.0953507
0.0952854
0.0952108
0.0951287
0.0950396
0.0949416
0.0948338
0.0947145
0.0945825
0.0944358
0.094274
0.0940949
0.0938923
0.0936659
0.093422
0.0931579
0.0928693
0.0925569
0.0922153
0.0918472
0.0914488
0.0910169
0.0905515
0.0900473
0.0895057
0.0889217
0.0882929
0.087617
0.0868893
0.0861085
0.0852689
0.0843698
0.0834059
0.0823794
0.0812757
0.0800788
0.0787851
0.0773717
0.0758684
0.0971066
0.0970591
0.0969977
0.0969274
0.09685
0.0967657
0.0966729
0.0965708
0.0964574
0.0963317
0.0961916
0.0960369
0.0958652
0.0956709
0.0954535
0.095219
0.0949645
0.0946861
0.0943843
0.0940539
0.0936973
0.0933108
0.0928914
0.0924386
0.0919475
0.091419
0.0908483
0.0902328
0.0895699
0.0888551
0.0880865
0.0872585
0.0863697
0.0854149
0.0843955
0.0832976
0.0821038
0.0808108
0.0793966
0.0778889
0.0987909
0.0987464
0.0986886
0.0986225
0.0985495
0.09847
0.0983822
0.0982853
0.0981776
0.098058
0.0979244
0.0977765
0.097612
0.0974256
0.097217
0.0969915
0.0967463
0.0964779
0.0961863
0.0958669
0.0955216
0.0951469
0.0947396
0.0942995
0.0938213
0.093306
0.0927487
0.0921467
0.0914971
0.0907955
0.0900398
0.0892241
0.0883467
0.0874022
0.0863911
0.0852989
0.0841102
0.0828203
0.0814078
0.079898
0.100452
0.10041
0.100356
0.100294
0.100225
0.10015
0.100067
0.0999757
0.0998735
0.0997596
0.0996323
0.0994908
0.0993333
0.0991547
0.0989545
0.0987377
0.0985017
0.0982429
0.0979614
0.0976527
0.0973184
0.0969553
0.0965601
0.0961324
0.0956673
0.0951651
0.0946212
0.0940329
0.093397
0.092709
0.0919666
0.091164
0.0902992
0.0893663
0.0883646
0.0872773
0.0860967
0.084812
0.0834037
0.0818937
0.102089
0.10205
0.101999
0.101941
0.101876
0.101805
0.101727
0.10164
0.101543
0.101435
0.101314
0.101178
0.101028
0.100857
0.100665
0.100456
0.100229
0.0999796
0.099708
0.0994097
0.0990864
0.0987346
0.0983515
0.0979361
0.0974839
0.0969949
0.0964645
0.09589
0.0952681
0.0945941
0.0938656
0.0930767
0.0922255
0.0913063
0.0903151
0.089236
0.088063
0.0867846
0.0853812
0.0838738
0.103699
0.103663
0.103615
0.103561
0.1035
0.103433
0.103359
0.103277
0.103185
0.103082
0.102967
0.102838
0.102694
0.10253
0.102346
0.102146
0.101927
0.101687
0.101425
0.101137
0.100824
0.100484
0.100112
0.0997092
0.0992698
0.098794
0.0982773
0.0977167
0.097109
0.0964494
0.0957353
0.0949608
0.0941241
0.0932216
0.0922406
0.0911712
0.0900071
0.0887361
0.0873386
0.0858365
0.105282
0.105248
0.105204
0.105152
0.105095
0.105033
0.104963
0.104885
0.104798
0.104701
0.104591
0.104468
0.10433
0.104173
0.103997
0.103804
0.103594
0.103363
0.10311
0.102832
0.10253
0.102201
0.101841
0.10145
0.101024
0.100561
0.100058
0.0995118
0.0989185
0.0982736
0.0975744
0.0968149
0.0959932
0.0951057
0.0941381
0.0930805
0.0919271
0.090665
0.089273
0.0877802
0.106836
0.106804
0.106763
0.106715
0.106661
0.106603
0.106537
0.106464
0.106382
0.106289
0.106185
0.106067
0.105936
0.105785
0.105616
0.105432
0.10523
0.105007
0.104764
0.104496
0.104204
0.103886
0.103538
0.103159
0.102745
0.102296
0.101806
0.101274
0.100696
0.100066
0.0993818
0.098638
0.0978318
0.0969597
0.0960064
0.0949624
0.0938211
0.09257
0.0911876
0.0897048
0.10836
0.108331
0.108292
0.108247
0.108197
0.108142
0.10808
0.108011
0.107934
0.107846
0.107747
0.107636
0.10751
0.107366
0.107204
0.107027
0.106833
0.106618
0.106384
0.106126
0.105844
0.105537
0.1052
0.104833
0.104432
0.103996
0.103521
0.103003
0.102439
0.101825
0.101157
0.100429
0.0996394
0.0987831
0.0978451
0.0968155
0.0956879
0.0944493
0.0930791
0.0916083
0.109854
0.109826
0.10979
0.109748
0.109701
0.109649
0.109591
0.109526
0.109453
0.109371
0.109277
0.109172
0.109051
0.108913
0.108758
0.108588
0.108402
0.108196
0.10797
0.107722
0.10745
0.107153
0.106828
0.106473
0.106085
0.105662
0.1052
0.104697
0.104148
0.103549
0.102898
0.102187
0.101416
0.100576
0.0996531
0.0986388
0.097526
0.0963015
0.0949454
0.0934892
0.111315
0.111289
0.111256
0.111217
0.111173
0.111124
0.11107
0.111009
0.11094
0.110862
0.110773
0.110673
0.110558
0.110426
0.110277
0.110115
0.109936
0.109738
0.109521
0.109282
0.10902
0.108734
0.10842
0.108077
0.107701
0.107291
0.106844
0.106355
0.105822
0.105239
0.104604
0.103911
0.10316
0.102336
0.101429
0.100431
0.0993342
0.0981252
0.0967851
0.0953455
0.112744
0.11272
0.112689
0.112652
0.112611
0.112566
0.112515
0.112457
0.112392
0.112318
0.112234
0.112139
0.112029
0.111903
0.111761
0.111606
0.111434
0.111244
0.111036
0.110806
0.110554
0.110278
0.109975
0.109644
0.10928
0.108884
0.10845
0.107976
0.107458
0.106892
0.106274
0.1056
0.104867
0.10406
0.103171
0.102191
0.101111
0.099919
0.0985966
0.0971754
0.114139
0.114117
0.114088
0.114054
0.114016
0.113973
0.113925
0.113871
0.11381
0.11374
0.11366
0.11357
0.113465
0.113345
0.113209
0.113061
0.112896
0.112714
0.112514
0.112293
0.112051
0.111785
0.111493
0.111173
0.110822
0.110439
0.110019
0.10956
0.109058
0.108508
0.107908
0.107253
0.106538
0.105749
0.104878
0.103916
0.102855
0.101681
0.100378
0.0989768
0.1155
0.115479
0.115452
0.115421
0.115385
0.115346
0.115301
0.11525
0.115192
0.115126
0.115051
0.114965
0.114865
0.114751