/*--------------------------------*- C++ -*----------------------------------*\
| =========                 |                                                 |
| \\      /  F ield         | OpenFOAM: The Open Source CFD Toolbox           |
|  \\    /   O peration     | Version:  5.x                                   |
|   \\  /    A nd           | Web:      www.OpenFOAM.org                      |
|    \\/     M anipulation  |                                                 |
\*---------------------------------------------------------------------------*/
FoamFile
{
    version     2.0;
    format      ascii;
    class       volScalarField;
    location    "400";
    object      p;
}
// * * * * * * * * * * * * * * * * * * * * * * * * * * * * * * * * * * * * * //

dimensions      [0 2 -2 0 0 0 0];

internalField   nonuniform List<scalar> 
26000
(
-0.000542255
-0.116253
0.138336
0.0659783
-0.0298583
0.00650655
0.175961
0.43772
0.737817
1.02364
1.26843
1.46321
1.61867
1.75634
1.8778
1.98431
2.08162
2.17612
2.26832
2.35915
2.44527
2.5257
2.60196
2.67341
2.74181
2.80707
2.86917
2.92906
2.98651
3.04218
3.09548
3.14675
3.19631
3.24436
3.29126
3.3368
3.38095
3.42366
3.46617
3.50764
3.26383
2.51742
1.57781
0.711318
0.182574
-0.0440146
-0.0599073
0.105426
0.396214
0.722272
1.02476
1.27266
1.47072
1.63882
1.78233
1.90239
2.00983
2.11073
2.2064
2.3006
2.39059
2.47577
2.55661
2.63227
2.70453
2.77313
2.83857
2.90144
2.96155
3.01965
3.07527
3.12879
3.18038
3.2303
3.2789
3.3261
3.3718
3.4162
3.46016
3.50306
3.88966
3.38103
2.74797
1.97583
1.17969
0.531037
0.155365
0.0606809
0.197513
0.468343
0.781523
1.07117
1.31124
1.51814
1.68533
1.82016
1.93676
2.04537
2.14704
2.24641
2.34209
2.43241
2.51854
2.59872
2.67473
2.74679
2.81498
2.88061
2.94297
3.00311
3.06075
3.11609
3.16948
3.22088
3.2709
3.3192
3.366
3.41165
3.45638
3.50103
4.18016
3.7407
3.31956
2.84485
2.23246
1.53871
0.909896
0.476963
0.310239
0.382335
0.603975
0.881956
1.14299
1.38866
1.58759
1.74279
1.87069
1.9876
2.09483
2.1983
2.29836
2.39263
2.48335
2.56778
2.64745
2.72283
2.79347
2.86168
2.92635
2.98863
3.04827
3.10534
3.16045
3.21325
3.26462
3.31392
3.36172
3.40844
3.45375
3.50008
4.44925
4.1004
3.71943
3.34019
2.9069
2.37766
1.77271
1.19558
0.770292
0.576284
0.598132
0.77365
0.994975
1.24977
1.47643
1.65812
1.80231
1.93016
2.04436
2.15229
2.25644
2.35398
2.44867
2.53712
2.62041
2.69924
2.77247
2.8433
2.9103
2.97471
3.0363
3.09504
3.15188
3.20609
3.2589
3.3094
3.35834
3.40617
3.45194
3.49996
4.6044
4.35736
4.05343
3.72354
3.36762
2.96747
2.4882
1.95295
1.4341
1.04306
0.83969
0.839996
0.945417
1.14703
1.36944
1.57024
1.73197
1.87317
1.99567
2.10831
2.21639
2.3168
2.41499
2.50717
2.59397
2.6764
2.75242
2.82591
2.89522
2.96171
3.02524
3.08565
3.14417
3.19973
3.25393
3.30561
3.3557
3.40469
3.45097
3.50079
4.69976
4.51478
4.28966
4.02793
3.72927
3.40244
3.02453
2.58893
2.10648
1.64882
1.29233
1.11497
1.06223
1.14594
1.30917
1.4994
1.66769
1.81992
1.9511
2.06882
2.18077
2.28361
2.38457
2.47975
2.56947
2.65516
2.73387
2.80995
2.88146
2.94996
3.01544
3.07751
3.13766
3.19452
3.25004
3.30281
3.35396
3.40407
3.45083
3.5025
4.76755
4.61872
4.4461
4.2462
4.00724
3.73764
3.4284
3.07791
2.67519
2.24577
1.83972
1.54536
1.35217
1.28981
1.34407
1.48011
1.62869
1.77929
1.9151
2.03698
2.15216
2.25657
2.35914
2.45634
2.54821
2.6366
2.71768
2.7961
2.86962
2.93994
3.00721
3.07082
3.1325
3.19063
3.24739
3.30119
3.35331
3.40443
3.45163
3.50504
4.8185
4.69435
4.55516
4.39921
4.21174
3.99467
3.74038
3.4528
3.12307
2.75511
2.37108
2.0344
1.75861
1.57191
1.50079
1.54655
1.64262
1.76852
1.89676
2.01744
2.13341
2.23806
2.34088
2.43884
2.53176
2.62187
2.70472
2.78502
2.86026
2.93215
3.00097
3.06593
3.12896
3.18824
3.24613
3.30089
3.35388
3.40592
3.45348
3.50843
4.85748
4.75176
4.63573
4.50961
4.36042
4.18746
3.9812
3.7445
3.47289
3.1652
2.83035
2.50181
2.20185
1.9415
1.76671
1.71191
1.73223
1.80833
1.91025
2.01833
2.12916
2.23123
2.33229
2.42926
2.52175
2.61234
2.69608
2.77755
2.85401
2.92709
2.99712
3.06319
3.12734
3.1876
3.24643
3.30204
3.35581
3.40863
3.45653
3.51273
4.88788
4.79642
4.69754
4.59244
4.47042
4.33094
4.16439
3.97092
3.74712
3.4909
3.20777
2.91005
2.62241
2.33702
2.09969
1.96055
1.90166
1.91205
1.96956
2.05041
2.14646
2.24047
2.3363
2.42986
2.52008
2.60956
2.69295
2.77461
2.85159
2.92532
2.99611
3.06296
3.12792
3.18895
3.24852
3.30481
3.35919
3.41268
3.46087
3.51801
4.91203
4.83185
4.74622
4.65674
4.5544
4.43935
4.30339
4.14524
3.96136
3.74853
3.51186
3.2516
2.99255
2.71422
2.45351
2.25921
2.13502
2.07865
2.08161
2.12249
2.19265
2.27093
2.35648
2.44332
2.52885
2.61518
2.69668
2.77728
2.85384
2.92748
2.99845
3.06564
3.13102
3.19253
3.25258
3.30936
3.36418
3.41816
3.4666
3.52436
4.93147
4.86041
4.7853
4.7079
4.6204
4.52342
4.41037
4.27974
4.12823
3.95155
3.75457
3.53124
3.30533
3.05043
2.79386
2.5737
2.40654
2.29466
2.24326
2.23758
2.27274
2.32728
2.39644
2.47229
2.55005
2.63088
2.7087
2.78673
2.86168
2.93432
3.00472
3.07166
3.13698
3.1986
3.25882
3.31585
3.37091
3.42517
3.47378
3.53184
4.94731
4.88376
4.81718
4.74936
4.67341
4.59021
4.49447
4.38488
4.25882
4.11154
3.94749
3.7575
3.56376
3.33821
3.10114
2.87763
2.68988
2.5401
2.44327
2.39215
2.3878
2.41235
2.45908
2.51914
2.58555
2.65819
2.73023
2.80401
2.87601
2.94656
3.01553
3.08152
3.14619
3.20747
3.26747
3.32445
3.37951
3.43383
3.48251
3.54055
4.96035
4.90308
4.84354
4.7835
4.71676
4.64435
4.56198
4.46856
4.36225
4.23837
4.10102
3.93968
3.77476
3.57884
3.36758
3.15487
2.96412
2.79451
2.66585
2.57684
2.53409
2.52598
2.54586
2.5857
2.63702
2.69844
2.76236
2.83002
2.89759
2.96488
3.03143
3.09569
3.15906
3.21946
3.27879
3.33536
3.39012
3.44424
3.49284
3.55057
4.97117
4.91923
4.8656
4.81199
4.75277
4.68902
4.61721
4.53641
4.44548
4.34006
4.224
4.08652
3.94628
3.77753
3.59298
3.39831
3.216
3.04132
2.89494
2.77908
2.70379
2.66443
2.65587
2.67249
2.70547
2.75272
2.80608
2.8656
2.92711
2.98981
3.0529
3.11458
3.17595
3.23488
3.29305
3.34879
3.40291
3.45654
3.50486
3.562
4.98021
4.93286
4.88427
4.83605
4.78308
4.72643
4.66313
4.59239
4.51359
4.42278
4.3236
4.20565
4.08591
3.94084
3.78114
3.60698
3.43922
3.26968
3.11745
2.98618
2.88688
2.82108
2.78557
2.7781
2.79076
2.82145
2.86203
2.91139
2.96517
3.02187
3.08035
3.13851
3.19713
3.25397
3.31046
3.36494
3.41804
3.47085
3.51866
3.57494
4.98779
4.94444
4.9002
4.85658
4.80889
4.75815
4.70187
4.6393
4.57022
4.49108
4.40535
4.30329
4.20032
4.07528
3.93738
3.78345
3.63253
3.47406
3.32452
3.18763
3.0734
2.9879
2.92942
2.89927
2.8913
2.90408
2.9302
2.96768
3.01213
3.06145
3.11415
3.16781
3.22285
3.27695
3.3312
3.38395
3.43565
3.48729
3.53431
3.58947
4.99417
4.95435
4.9139
4.87426
4.83107
4.78534
4.73492
4.67913
4.61798
4.54831
4.47339
4.38425
4.29493
4.18656
4.06722
3.93184
3.79774
3.653
3.51143
3.37618
3.25507
3.15699
3.08099
3.03139
3.00417
2.99897
3.00979
3.03417
3.06801
3.1087
3.15448
3.20268
3.25331
3.30396
3.3554
3.40594
3.45584
3.50597
3.5519
3.60566
4.99955
4.96286
4.92575
4.88957
4.85028
4.80885
4.76341
4.71331
4.65876
4.59688
4.53078
4.45223
4.37406
4.27946
4.17565
4.05661
3.93807
3.80766
3.67674
3.54778
3.42602
3.32174
3.23404
3.16929
3.12553
3.10355
3.09923
3.10999
3.13236
3.16346
3.20135
3.24318
3.28861
3.33513
3.38316
3.431
3.47868
3.52693
3.57148
3.62358
5.00409
4.97019
4.93605
4.90292
4.86704
4.82933
4.78817
4.74291
4.69393
4.63857
4.57975
4.51
4.44099
4.35777
4.26687
4.1619
4.0572
3.94048
3.82112
3.70097
3.58284
3.4774
3.3833
3.30802
3.25124
3.21468
3.1963
3.19367
3.20429
3.22519
3.25447
3.2892
3.32871
3.37045
3.41451
3.45915
3.50419
3.55022
3.59308
3.64325
5.0079
4.97651
4.94503
4.91461
4.88173
4.84728
4.80982
4.76875
4.72451
4.67467
4.62197
4.55959
4.4982
4.42446
4.34429
4.2513
4.15862
4.05435
3.94638
3.83602
3.72413
3.62111
3.52494
3.44341
3.37735
3.32902
3.29839
3.28335
3.28249
3.29306
3.31331
3.34041
3.37342
3.40983
3.4494
3.49039
3.53238
3.57584
3.6167
3.66469
5.01109
4.98198
4.95288
4.92486
4.89465
4.86307
4.82886
4.79142
4.75127
4.70616
4.65867
4.60254
4.54755
4.48177
4.41057
4.32778
4.24541
4.15219
4.05483
3.9543
3.84996
3.75162
3.65658
3.57238
3.50053
3.44346
3.40282
3.37687
3.36537
3.36591
3.37708
3.39628
3.42239
3.45305
3.4877
3.52461
3.56319
3.60373
3.64232
3.68786
5.01373
4.98669
4.95974
4.93388
4.90604
4.877
4.84565
4.8114
4.77481
4.7338
4.69077
4.64
4.59045
4.53142
4.46779
4.39368
4.32014
4.23659
4.14884
4.05762
3.96125
3.86883
3.77708
3.69295
3.6183
3.55536
3.50711
3.4721
3.45119
3.44242
3.4448
3.45611
3.47515
3.49978
3.52916
3.56168
3.59652
3.63385
3.66989
3.71273
5.01589
4.99072
4.96572
4.9418
4.91609
4.88932
4.8605
4.82906
4.79559
4.75816
4.719
4.67287
4.62799
4.57473
4.51753
4.45087
4.38489
4.30976
4.23057
4.14788
4.05936
3.97338
3.88622
3.80411
3.72898
3.6627
3.60914
3.56706
3.53821
3.52115
3.51535
3.51905
3.53107
3.54955
3.57348
3.60135
3.63219
3.66606
3.69933
3.73921
5.01762
4.99417
4.97093
4.94875
4.92494
4.9002
4.87363
4.84469
4.81398
4.77969
4.74391
4.70182
4.66099
4.61272
4.56104
4.50078
4.44132
4.37351
4.30188
4.22689
4.14581
4.0663
3.98437
3.90555
3.83165
3.76409
3.70728
3.66004
3.62485
3.60073
3.58759
3.58419
3.58944
3.60184
3.62024
3.64334
3.66999
3.7002
3.73051
3.76723
5.01896
4.99708
4.97544
4.95483
4.93273
4.9098
4.88524
4.85853
4.83025
4.79874
4.76594
4.7274
4.69011
4.64616
4.59927
4.54457
4.49074
4.42932
4.36435
4.29623
4.22202
4.14874
4.07228
3.99747
3.92598
3.85872
3.80036
3.74971
3.70974
3.67987
3.66038
3.65058
3.64949
3.65604
3.669
3.68729
3.70967
3.73607
3.76328
3.79666
5.01995
4.9995
4.97932
4.96012
4.93957
4.91826
4.8955
4.87077
4.84466
4.81562
4.78545
4.75005
4.71585
4.6757
4.63297
4.58313
4.53421
4.47837
4.41926
4.35725
4.2893
4.22187
4.15083
4.08039
4.01205
3.94624
3.88768
3.8351
3.79179
3.75746
3.73271
3.71732
3.71047
3.71153
3.71925
3.7328
3.7509
3.77345
3.79748
3.82738
5.02063
5.00149
4.98263
4.9647
4.94553
4.92569
4.90454
4.88158
4.85741
4.83056
4.80273
4.77011
4.73865
4.70184
4.66277
4.6172
4.57257
4.52163
4.4677
4.4111
4.34883
4.2868
4.22095
4.15498
4.0902
4.02662
3.96887
3.91561
3.87021
3.83261
3.80366
3.78355
3.77163
3.76767
3.77047
3.77947
3.79337
3.81206
3.83288
3.85923
5.02102
5.00308
4.98542
4.96864
4.95072
4.93219
4.91248
4.89112
4.86867
4.84379
4.81802
4.7879
4.75886
4.72501
4.68915
4.64737
4.60651
4.55989
4.51054
4.45876
4.40162
4.34452
4.28357
4.22199
4.16093
4.10008
4.04388
3.99087
3.94444
3.90466
3.87252
3.84857
3.8323
3.82388
3.82216
3.82687
3.83672
3.85164
3.86927
3.89204
5.02116
5.00431
4.98775
4.97199
4.9552
4.93785
4.91943
4.8995
4.87859
4.85547
4.83156
4.80367
4.77678
4.74556
4.71255
4.67412
4.63659
4.59381
4.54853
4.50104
4.44851
4.3959
4.33951
4.28214
4.22482
4.16698
4.11281
4.06078
4.01417
3.97312
3.93872
3.91178
3.8919
3.87961
3.87383
3.87458
3.88061
3.8919
3.90641
3.92564
5.02107
5.00522
4.98964
4.97482
4.95904
4.94274
4.92549
4.90684
4.88732
4.86578
4.84352
4.81763
4.79266
4.76378
4.73331
4.69788
4.66331
4.62394
4.58228
4.53862
4.49024
4.44171
4.38952
4.33614
4.28248
4.22776
4.17593
4.12539
4.07926
4.03772
4.00186
3.9727
3.94993
3.93437
3.92505
3.9222
3.92471
3.93255
3.94407
3.95984
5.02076
5.00583
4.99116
4.97717
4.9623
4.94696
4.93075
4.91326
4.89498
4.87485
4.85409
4.83
4.80674
4.77996
4.75175
4.719
4.68706
4.65074
4.61233
4.57208
4.52745
4.48262
4.43428
4.38464
4.33448
4.2829
4.23358
4.18488
4.13973
4.09831
4.06167
4.03098
4.006
3.98777
3.97541
3.96939
3.96868
3.97332
3.98201
3.99446
5.02027
5.00618
4.99233
4.97909
4.96505
4.95057
4.93529
4.91885
4.90169
4.88284
4.8634
4.84094
4.81922
4.79432
4.76813
4.7378
4.7082
4.67461
4.63911
4.60192
4.56068
4.5192
4.4744
4.42823
4.38139
4.3329
4.28615
4.23951
4.1957
4.15487
4.11803
4.08641
4.05982
4.03947
4.02459
4.01582
4.01224
4.01396
4.02
4.0293
5.01962
5.0063
4.99319
4.98064
4.96734
4.95364
4.93921
4.92371
4.90755
4.88986
4.87162
4.85063
4.83029
4.80708
4.7827
4.75454
4.72704
4.69592
4.66302
4.62859
4.59042
4.55197
4.5104
4.46745
4.42373
4.37822
4.33404
4.28959
4.24736
4.20749
4.1709
4.13886
4.1112
4.08925
4.07231
4.06122
4.05513
4.05421
4.05782
4.06421
5.01882
5.0062
4.99377
4.98184
4.96923
4.95623
4.94257
4.92792
4.91267
4.89602
4.87886
4.85921
4.84011
4.81843
4.79567
4.76948
4.74387
4.71496
4.68442
4.65247
4.61707
4.58138
4.54277
4.50279
4.46197
4.41932
4.37766
4.33544
4.29495
4.2563
4.22033
4.18827
4.16
4.13691
4.11839
4.10536
4.09713
4.09388
4.09529
4.09899
5.0179
5.00593
4.99412
4.98276
4.97076
4.95841
4.94544
4.93157
4.91714
4.90144
4.88526
4.86681
4.84884
4.82854
4.80725
4.78284
4.75892
4.73201
4.7036
4.67389
4.64102
4.60783
4.57193
4.53468
4.49657
4.45662
4.41739
4.37741
4.33875
4.3015
4.26641
4.23467
4.20619
4.18236
4.16265
4.14808
4.13805
4.13278
4.13223
4.13351
5.01687
5.00549
4.99426
4.98341
4.97198
4.96022
4.94788
4.93472
4.92105
4.9062
4.89091
4.87357
4.85662
4.83756
4.8176
4.7948
4.77242
4.74732
4.72084
4.69316
4.66258
4.63166
4.59824
4.56352
4.52792
4.49051
4.4536
4.41582
4.37903
4.3433
4.30929
4.27814
4.24976
4.22554
4.20502
4.18926
4.17775
4.17076
4.16849
4.16763
5.01575
5.00492
4.99421
4.98385
4.97294
4.96171
4.94996
4.93745
4.92446
4.9104
4.89592
4.87958
4.86357
4.84564
4.82688
4.80555
4.78456
4.76111
4.73638
4.71053
4.68204
4.6532
4.62205
4.58965
4.55638
4.52134
4.48666
4.45101
4.41609
4.38194
4.34914
4.31878
4.29076
4.26645
4.24543
4.22879
4.21612
4.2077
4.20394
4.20121
5.01455
5.00423
4.99402
4.98409
4.97367
4.96294
4.95173
4.93982
4.92746
4.91412
4.90038
4.88496
4.86979
4.8529
4.83523
4.81524
4.79552
4.77356
4.75042
4.72625
4.69966
4.67272
4.64364
4.61338
4.58227
4.54946
4.51686
4.48327
4.45019
4.41765
4.38616
4.35674
4.32928
4.30512
4.28387
4.26663
4.25307
4.24349
4.23848
4.23415
5.01328
5.00344
4.99369
4.98418
4.97421
4.96395
4.95324
4.94188
4.9301
4.91743
4.90437
4.88979
4.8754
4.85946
4.84278
4.82401
4.80545
4.78485
4.76317
4.74053
4.71568
4.69046
4.66329
4.635
4.60587
4.57515
4.54452
4.51288
4.4816
4.45066
4.42054
4.39216
4.36543
4.3416
4.32036
4.30277
4.28857
4.27808
4.27203
4.26636
5.01197
5.00257
4.99325
4.98413
4.97459
4.96476
4.95452
4.94367
4.93244
4.92038
4.90795
4.89414
4.88048
4.8654
4.84964
4.83199
4.81448
4.79513
4.77478
4.75353
4.73027
4.70665
4.68122
4.65474
4.62746
4.59867
4.5699
4.54012
4.51056
4.48121
4.45248
4.42521
4.39931
4.37598
4.35493
4.3372
4.32259
4.31142
4.30453
4.29776
5.01062
5.00164
4.99272
4.98397
4.97483
4.96541
4.95561
4.94525
4.93451
4.92302
4.91118
4.89809
4.88509
4.87082
4.8559
4.83927
4.82274
4.80453
4.7854
4.76543
4.74363
4.72146
4.69765
4.67284
4.64726
4.62027
4.59323
4.56522
4.53732
4.50951
4.48216
4.45604
4.43107
4.40835
4.38765
4.36996
4.35513
4.34347
4.33593
4.3283
5.00923
5.00066
4.99212
4.98372
4.97496
4.96593
4.95654
4.94663
4.93637
4.92541
4.91412
4.90169
4.88932
4.87578
4.86165
4.84596
4.83032
4.81317
4.79515
4.77636
4.7559
4.73507
4.71274
4.68947
4.66548
4.64016
4.61475
4.58839
4.56207
4.53576
4.50977
4.48482
4.46083
4.43882
4.41859
4.40108
4.38619
4.37424
4.36622
4.35792
5.00783
4.99963
4.99146
4.9834
4.97499
4.96634
4.95734
4.94786
4.93804
4.92759
4.91681
4.905
4.8932
4.88035
4.86694
4.85212
4.83732
4.82113
4.80414
4.78644
4.76721
4.74762
4.72665
4.70481
4.68228
4.65852
4.63462
4.60983
4.58501
4.56013
4.53548
4.5117
4.48872
4.46749
4.44783
4.43063
4.41582
4.40373
4.39537
4.38661
5.00641
4.99857
4.99075
4.98301
4.97495
4.96665
4.95802
4.94895
4.93956
4.92957
4.91928
4.90804
4.89679
4.88458
4.87184
4.85782
4.8438
4.8285
4.81247
4.79577
4.77768
4.75924
4.73952
4.719
4.69783
4.67551
4.65304
4.62972
4.60632
4.58281
4.55946
4.53684
4.51488
4.49447
4.47545
4.45865
4.44405
4.43195
4.42338
4.41432
5.00498
4.99749
4.99
4.98257
4.97484
4.96688
4.95861
4.94992
4.94093
4.93139
4.92156
4.91086
4.90013
4.88852
4.87641
4.86313
4.84982
4.83536
4.82022
4.80444
4.7874
4.77002
4.75147
4.73217
4.71226
4.69129
4.67014
4.6482
4.62614
4.60395
4.58184
4.56036
4.53943
4.51987
4.50154
4.48523
4.47092
4.45892
4.45027
4.44106
5.00356
4.99639
4.98922
4.98209
4.97468
4.96704
4.95912
4.9508
4.94219
4.93308
4.92367
4.91348
4.90324
4.89219
4.88067
4.86809
4.85545
4.84176
4.82744
4.81253
4.79646
4.78006
4.7626
4.74443
4.72569
4.70597
4.68607
4.66541
4.64462
4.62367
4.60277
4.58239
4.56249
4.54379
4.52619
4.51042
4.49649
4.48469
4.47605
4.46681
5.00213
4.99528
4.98841
4.98158
4.97447
4.96715
4.95956
4.95159
4.94335
4.93463
4.92564
4.91593
4.90615
4.89563
4.88466
4.87273
4.86072
4.84776
4.8342
4.82009
4.80493
4.78944
4.77299
4.75587
4.73822
4.71967
4.70093
4.68148
4.66188
4.64212
4.62236
4.60306
4.58415
4.56632
4.54947
4.53429
4.5208
4.50928
4.50073
4.49158
5.00072
4.99417
4.9876
4.98104
4.97423
4.96721
4.95993
4.95231
4.94442
4.93608
4.92749
4.91823
4.90888
4.89886
4.88842
4.87709
4.86568
4.85338
4.84054
4.82718
4.81287
4.79823
4.78271
4.76658
4.74994
4.73248
4.71482
4.69651
4.67803
4.65939
4.64073
4.62246
4.60453
4.58756
4.57148
4.55691
4.5439
4.53273
4.52435
4.51538
4.99932
4.99305
4.98677
4.98048
4.97396
4.96723
4.96026
4.95296
4.9454
4.93744
4.92921
4.92038
4.91146
4.9019
4.89196
4.8812
4.87035
4.85868
4.84651
4.83385
4.82032
4.80649
4.79184
4.77662
4.76093
4.74449
4.72784
4.71058
4.69317
4.67559
4.65798
4.64069
4.62371
4.60759
4.59228
4.57835
4.56586
4.55508
4.54693
4.53822
4.99793
4.99195
4.98593
4.97991
4.97366
4.96722
4.96053
4.95355
4.94631
4.9387
4.93084
4.92241
4.91389
4.90478
4.8953
4.88508
4.87475
4.86368
4.85214
4.84014
4.82734
4.81426
4.80042
4.78606
4.77125
4.75575
4.74005
4.7238
4.70738
4.6908
4.67418
4.65785
4.64179
4.6265
4.61195
4.59867
4.58673
4.57638
4.56851
4.5601
4.99657
4.99085
4.9851
4.97933
4.97334
4.96717
4.96077
4.95408
4.94716
4.93988
4.93236
4.92433
4.91618
4.9075
4.89846
4.88875
4.87892
4.86841
4.85745
4.84608
4.83397
4.82158
4.8085
4.79494
4.78096
4.76634
4.75154
4.73622
4.72074
4.70511
4.68943
4.67401
4.65883
4.64435
4.63055
4.61793
4.60655
4.59665
4.5891
4.58106
4.99523
4.98977
4.98427
4.97874
4.97301
4.9671
4.96097
4.95457
4.94795
4.94099
4.9338
4.92613
4.91835
4.91007
4.90146
4.89222
4.88286
4.87288
4.86248
4.85169
4.84022
4.82849
4.81612
4.80331
4.7901
4.77632
4.76235
4.74791
4.73332
4.71858
4.7038
4.68924
4.67491
4.66122
4.64816
4.63619
4.62537
4.61596
4.60875
4.60111
4.99391
4.9887
4.98344
4.97815
4.97267
4.96701
4.96114
4.95502
4.94868
4.94203
4.93515
4.92784
4.9204
4.91251
4.9043
4.89551
4.8866
4.87712
4.86724
4.857
4.84613
4.83502
4.82332
4.8112
4.79873
4.78572
4.77254
4.75892
4.74517
4.73127
4.71734
4.70361
4.69009
4.67717
4.66482
4.65349
4.64325
4.63432
4.62748
4.62027
4.99262
4.98765
4.98263
4.97756
4.97231
4.96689
4.96128
4.95542
4.94936
4.943
4.93643
4.92945
4.92235
4.91482
4.90699
4.89863
4.89015
4.88113
4.87175
4.86203
4.85173
4.84119
4.83012
4.81867
4.80688
4.7946
4.78215
4.76931
4.75635
4.74325
4.73012
4.71718
4.70444
4.69224
4.6806
4.6699
4.66022
4.65179
4.64534
4.63857
4.99136
4.98662
4.98182
4.97697
4.97195
4.96677
4.96139
4.95579
4.94999
4.94392
4.93764
4.93098
4.92419
4.91701
4.90954
4.90159
4.89351
4.88494
4.87603
4.86679
4.85703
4.84704
4.83656
4.82573
4.81458
4.80299
4.79124
4.77913
4.7669
4.75456
4.74219
4.73
4.718
4.70651
4.69554
4.68545
4.67634
4.6684
4.66233
4.65602
4.99013
4.9856
4.98102
4.97639
4.97158
4.96662
4.96148
4.95613
4.95058
4.94477
4.93877
4.93242
4.92594
4.91909
4.91197
4.9044
4.8967
4.88855
4.88008
4.87131
4.86206
4.85259
4.84266
4.83241
4.82187
4.81092
4.79982
4.78841
4.77688
4.76525
4.7536
4.74212
4.73082
4.72001
4.70968
4.70019
4.69163
4.68418
4.67851
4.67266
4.98893
4.98461
4.98023
4.9758
4.97121
4.96647
4.96155
4.95643
4.95113
4.94558
4.93985
4.93378
4.92759
4.92106
4.91427
4.90707
4.89974
4.89199
4.88394
4.8756
4.86682
4.85784
4.84844
4.83874
4.82877
4.81843
4.80795
4.79718
4.78631
4.77535
4.76439
4.75358
4.74295
4.73278
4.72308
4.71417
4.70613
4.69917
4.69389
4.6885
4.98776
4.98364
4.97946
4.97523
4.97084
4.9663
4.9616
4.95671
4.95164
4.94634
4.94086
4.93507
4.92916
4.92293
4.91646
4.9096
4.90262
4.89524
4.88759
4.87967
4.87135
4.86283
4.85392
4.84474
4.83531
4.82554
4.81564
4.80548
4.79524
4.78492
4.77459
4.76443
4.75444
4.74488
4.73577
4.72741
4.7199
4.7134
4.70851
4.70357
4.98662
4.9827
4.97871
4.97466
4.97046
4.96613
4.96164
4.95696
4.95211
4.94705
4.94181
4.93629
4.93065
4.9247
4.91853
4.91201
4.90535
4.89834
4.89107
4.88354
4.87564
4.86756
4.85912
4.85043
4.84151
4.83228
4.82293
4.81335
4.80369
4.79397
4.78425
4.77469
4.7653
4.75633
4.74779
4.73997
4.73295
4.72691
4.72239
4.7179
4.98552
4.98178
4.97797
4.9741
4.97009
4.96595
4.96165
4.95718
4.95255
4.94772
4.94272
4.93745
4.93206
4.92639
4.92051
4.9143
4.90796
4.90129
4.89437
4.88722
4.87973
4.87205
4.86406
4.85583
4.84739
4.83867
4.82984
4.8208
4.81169
4.80253
4.79339
4.7844
4.77559
4.76717
4.75918
4.75186
4.74532
4.73971
4.73556
4.7315
4.98445
4.98088
4.97725
4.97355
4.96972
4.96576
4.96166
4.95738
4.95296
4.94834
4.94357
4.93854
4.9334
4.92799
4.92238
4.91647
4.91043
4.90409
4.89751
4.89071
4.8836
4.87632
4.86875
4.86095
4.85296
4.84472
4.83638
4.82785
4.81927
4.81065
4.80205
4.7936
4.78533
4.77743
4.76996
4.76312
4.75704
4.75186
4.74806
4.7444
4.98341
4.98001
4.97654
4.97301
4.96935
4.96557
4.96165
4.95757
4.95334
4.94893
4.94437
4.93958
4.93467
4.92951
4.92416
4.91854
4.91278
4.90675
4.90049
4.89404
4.88728
4.88038
4.8732
4.86581
4.85825
4.85047
4.84259
4.83454
4.82645
4.81833
4.81024
4.80231
4.79455
4.78715
4.78016
4.77379
4.76814
4.76335
4.75989
4.75663
4.98241
4.97917
4.97586
4.97249
4.96899
4.96538
4.96163
4.95773
4.9537
4.94949
4.94513
4.94056
4.93587
4.93095
4.92586
4.9205
4.91502
4.90928
4.90333
4.89719
4.89078
4.88423
4.87742
4.87043
4.86328
4.85591
4.84847
4.84088
4.83325
4.82561
4.818
4.81055
4.80327
4.79635
4.78982
4.78388
4.77864
4.77424
4.7711
4.7682
4.98144
4.97835
4.9752
4.97198
4.96864
4.96519
4.96161
4.95788
4.95403
4.95001
4.94585
4.94149
4.93701
4.93233
4.92747
4.92236
4.91714
4.91168
4.90603
4.90019
4.89411
4.88789
4.88144
4.87481
4.86804
4.86108
4.85405
4.84689
4.8397
4.8325
4.82535
4.81835
4.81153
4.80505
4.79896
4.79343
4.78858
4.78454
4.7817
4.77914
4.98051
4.97756
4.97456
4.97148
4.96829
4.96499
4.96157
4.95802
4.95434
4.9505
4.94653
4.94237
4.9381
4.93363
4.929
4.92414
4.91916
4.91397
4.90859
4.90304
4.89727
4.89136
4.88525
4.87897
4.87256
4.86598
4.85934
4.85258
4.84581
4.83903
4.83231
4.82574
4.81935
4.81329
4.8076
4.80247
4.79798
4.79427
4.79172
4.78948
4.97961
4.97681
4.97393
4.971
4.96795
4.9648
4.96154
4.95814
4.95463
4.95096
4.94717
4.9432
4.93913
4.93486
4.93045
4.92582
4.92109
4.91614
4.91103
4.90575
4.90027
4.89466
4.88886
4.88292
4.87685
4.87063
4.86435
4.85798
4.85159
4.84521
4.83889
4.83272
4.82674
4.82107
4.81577
4.811
4.80686
4.80347
4.80117
4.79924
4.97875
4.97607
4.97333
4.97053
4.96762
4.96461
4.9615
4.95825
4.9549
4.9514
4.94778
4.94399
4.9401
4.93604
4.93183
4.92742
4.92291
4.9182
4.91334
4.90833
4.90312
4.8978
4.8923
4.88667
4.88092
4.87504
4.86911
4.86309
4.85707
4.85106
4.84513
4.83933
4.83373
4.82843
4.82349
4.81907
4.81525
4.81215
4.8101
4.80843
4.97792
4.97537
4.97276
4.97008
4.9673
4.96443
4.96145
4.95835
4.95515
4.95181
4.94835
4.94474
4.94103
4.93715
4.93314
4.92894
4.92464
4.92016
4.91554
4.91077
4.90583
4.90077
4.89556
4.89022
4.88478
4.87922
4.87361
4.86793
4.86225
4.8566
4.85102
4.84558
4.84033
4.83538
4.83079
4.82668
4.82316
4.82033
4.81851
4.81709
4.97713
4.9747
4.9722
4.96964
4.96699
4.96425
4.9614
4.95845
4.95538
4.9522
4.9489
4.94545
4.94191
4.93821
4.93438
4.93039
4.92629
4.92203
4.91763
4.91309
4.9084
4.9036
4.89865
4.89359
4.88844
4.88317
4.87787
4.87252
4.86716
4.86184
4.85659
4.85149
4.84658
4.84195
4.83767
4.83386
4.83062
4.82805
4.82643
4.82523
4.97637
4.97405
4.97167
4.96923
4.96669
4.96407
4.96136
4.95853
4.95561
4.95256
4.94941
4.94613
4.94274
4.93922
4.93557
4.93176
4.92785
4.92379
4.91961
4.9153
4.91083
4.90627
4.90158
4.89678
4.8919
4.88692
4.88191
4.87685
4.87181
4.86679
4.86186
4.85707
4.85247
4.84815
4.84416
4.84064
4.83765
4.83531
4.83388
4.83288
4.97564
4.97343
4.97116
4.96883
4.96641
4.9639
4.96131
4.95861
4.95581
4.95291
4.9499
4.94676
4.94353
4.94017
4.93669
4.93306
4.92934
4.92547
4.92149
4.91738
4.91314
4.90881
4.90436
4.89981
4.89518
4.89047
4.88573
4.88096
4.8762
4.87148
4.86684
4.86234
4.85803
4.854
4.85029
4.84702
4.84427
4.84215
4.84088
4.84006
4.97495
4.97284
4.97067
4.96844
4.96613
4.96374
4.96126
4.95868
4.95601
4.95323
4.95036
4.94737
4.94428
4.94107
4.93775
4.93429
4.93074
4.92706
4.92327
4.91936
4.91533
4.91122
4.90699
4.90267
4.89829
4.89383
4.88935
4.88484
4.88034
4.8759
4.87153
4.86731
4.86328
4.85951
4.85605
4.85303
4.8505
4.84857
4.84746
4.84679
4.97429
4.97228
4.97021
4.96808
4.96587
4.96358
4.96121
4.95875
4.95619
4.95354
4.9508
4.94794
4.94499
4.94193
4.93876
4.93546
4.93208
4.92857
4.92496
4.92124
4.91741
4.91349
4.90948
4.90538
4.90123
4.897
4.89276
4.8885
4.88426
4.88007
4.87596
4.872
4.86822
4.8647
4.86149
4.85868
4.85636
4.85461
4.85363
4.8531
4.97366
4.97174
4.96976
4.96773
4.96562
4.96343
4.96116
4.95881
4.95637
4.95383
4.95121
4.94848
4.94566
4.94274
4.93971
4.93657
4.93334
4.93
4.92655
4.92301
4.91937
4.91565
4.91183
4.90794
4.904
4.9
4.89599
4.89196
4.88795
4.884
4.88014
4.87642
4.87288
4.86958
4.86659
4.86399
4.86186
4.86027
4.85942
4.85902
4.97307
4.97123
4.96934
4.9674
4.96538
4.96329
4.96112
4.95887
4.95653
4.95411
4.9516
4.94899
4.9463
4.9435
4.94061
4.93761
4.93453
4.93135
4.92806
4.92469
4.92122
4.91768
4.91405
4.91036
4.90662
4.90283
4.89903
4.89522
4.89144
4.88771
4.88408
4.88058
4.87726
4.87418
4.87139
4.86899
4.86703
4.86559
4.86485
4.86455
4.97251
4.97075
4.96894
4.96708
4.96515
4.96315
4.96107
4.95892
4.95669
4.95437
4.95197
4.94947
4.9469
4.94423
4.94147
4.9386
4.93566
4.93262
4.92949
4.92628
4.92297
4.9196
4.91615
4.91264
4.90909
4.9055
4.90189
4.89829
4.89472
4.8912
4.88778
4.88449
4.88137
4.8785
4.8759
4.87367
4.87187
4.87057
4.86993
4.86972
4.97197
4.9703
4.96857
4.96679
4.96494
4.96302
4.96103
4.95897
4.95683
4.95461
4.95232
4.94993
4.94747
4.94491
4.94227
4.93954
4.93673
4.93382
4.93084
4.92777
4.92462
4.92141
4.91813
4.91479
4.91142
4.90801
4.90459
4.90118
4.8978
4.89448
4.89125
4.88816
4.88524
4.88255
4.88013
4.87807
4.87641
4.87523
4.87469
4.87456
4.97147
4.96987
4.96821
4.96651
4.96473
4.9629
4.96099
4.95902
4.95697
4.95485
4.95265
4.95036
4.948
4.94556
4.94303
4.94042
4.93773
4.93496
4.93211
4.92918
4.92618
4.92312
4.91999
4.91682
4.91361
4.91037
4.90713
4.90389
4.9007
4.89756
4.89452
4.89161
4.88887
4.88635
4.8841
4.88218
4.88066
4.8796
4.87913
4.87908
4.971
4.96946
4.96788
4.96624
4.96454
4.96278
4.96096
4.95906
4.9571
4.95506
4.95295
4.95077
4.94851
4.94617
4.94375
4.94125
4.93868
4.93602
4.9333
4.93051
4.92764
4.92472
4.92174
4.91872
4.91566
4.91258
4.90951
4.90644
4.90341
4.90045
4.89758
4.89484
4.89226
4.8899
4.88781
4.88603
4.88463
4.88368
4.88329
4.8833
4.97056
4.96908
4.96756
4.96599
4.96437
4.96268
4.96092
4.95911
4.95722
4.95527
4.95325
4.95115
4.94898
4.94674
4.94442
4.94203
4.93956
4.93703
4.93442
4.93175
4.92901
4.92622
4.92338
4.9205
4.91759
4.91466
4.91174
4.90883
4.90596
4.90315
4.90044
4.89786
4.89544
4.89323
4.89127
4.88963
4.88835
4.88749
4.88717
4.88724
4.97014
4.96873
4.96727
4.96576
4.9642
4.96258
4.96089
4.95915
4.95734
4.95546
4.95352
4.95151
4.94943
4.94728
4.94505
4.94276
4.9404
4.93796
4.93547
4.93291
4.93029
4.92763
4.92492
4.92217
4.91939
4.9166
4.91382
4.91106
4.90833
4.90568
4.90311
4.90068
4.8984
4.89633
4.89451
4.89298
4.89181
4.89104
4.89078
4.89092
4.96976
4.9684
4.967
4.96555
4.96404
4.96248
4.96087
4.95919
4.95745
4.95564
4.95378
4.95184
4.94985
4.94778
4.94564
4.94344
4.94117
4.93884
4.93645
4.934
4.93149
4.92894
4.92635
4.92372
4.92108
4.91842
4.91577
4.91314
4.91055
4.90803
4.90561
4.90331
4.90116
4.89922
4.89752
4.8961
4.89503
4.89435
4.89415
4.89434
4.9694
4.96809
4.96674
4.96535
4.9639
4.9624
4.96084
4.95923
4.95755
4.95582
4.95402
4.95216
4.95023
4.94825
4.94619
4.94408
4.9419
4.93966
4.93736
4.93502
4.93261
4.93017
4.92768
4.92517
4.92264
4.9201
4.91758
4.91507
4.91261
4.91022
4.90792
4.90575
4.90373
4.9019
4.90031
4.89901
4.89803
4.89742
4.89728
4.89752
4.96906
4.96781
4.96651
4.96516
4.96377
4.96232
4.96082
4.95926
4.95765
4.95597
4.95424
4.95245
4.9506
4.94868
4.94671
4.94467
4.94258
4.94042
4.93821
4.93596
4.93365
4.9313
4.92892
4.92652
4.92409
4.92167
4.91925
4.91686
4.91452
4.91225
4.91007
4.90801
4.9061
4.90439
4.90291
4.90169
4.9008
4.90027
4.90019
4.90047
4.96876
4.96755
4.96629
4.96499
4.96365
4.96225
4.9608
4.9593
4.95774
4.95612
4.95445
4.95272
4.95093
4.94909
4.94718
4.94522
4.9432
4.94113
4.939
4.93683
4.93461
4.93236
4.93007
4.92776
4.92544
4.92311
4.9208
4.91852
4.91629
4.91412
4.91205
4.9101
4.9083
4.90669
4.9053
4.90418
4.90337
4.90291
4.90288
4.90321
4.96848
4.96731
4.9661
4.96484
4.96354
4.96219
4.96078
4.95933
4.95782
4.95626
4.95465
4.95297
4.95125
4.94946
4.94762
4.94572
4.94378
4.94178
4.93973
4.93763
4.93549
4.93332
4.93112
4.9289
4.92667
4.92444
4.92223
4.92004
4.91791
4.91584
4.91387
4.91202
4.91032
4.9088
4.9075
4.90647
4.90573
4.90534
4.90536
4.90574
4.96822
4.96709
4.96592
4.9647
4.96344
4.96213
4.96077
4.95936
4.9579
4.95639
4.95482
4.9532
4.95153
4.9498
4.94802
4.94619
4.94431
4.94237
4.94039
4.93837
4.9363
4.93421
4.93209
4.92995
4.9278
4.92566
4.92353
4.92144
4.91939
4.91742
4.91554
4.91378
4.91216
4.91073
4.90952
4.90856
4.9079
4.90757
4.90765
4.90807
4.96799
4.96689
4.96575
4.96457
4.96335
4.96208
4.96076
4.95939
4.95798
4.95651
4.95499
4.95342
4.95179
4.95012
4.94839
4.94661
4.94479
4.94291
4.941
4.93904
4.93704
4.93502
4.93297
4.9309
4.92883
4.92677
4.92472
4.9227
4.92074
4.91885
4.91705
4.91537
4.91384
4.91249
4.91136
4.91047
4.90988
4.90962
4.90975
4.91022
4.96779
4.96672
4.96561
4.96446
4.96327
4.96204
4.96075
4.95942
4.95804
4.95662
4.95514
4.95361
4.95203
4.9504
4.94873
4.947
4.94522
4.9434
4.94154
4.93964
4.93771
4.93575
4.93376
4.93176
4.92976
4.92776
4.92579
4.92385
4.92196
4.92014
4.91842
4.91682
4.91536
4.91408
4.91302
4.9122
4.91168
4.91148
4.91166
4.91218
4.9676
4.96656
4.96548
4.96437
4.9632
4.962
4.96075
4.95945
4.95811
4.95671
4.95527
4.95378
4.95225
4.95066
4.94902
4.94734
4.94561
4.94384
4.94203
4.94018
4.9383
4.9364
4.93447
4.93253
4.93059
4.92866
4.92674
4.92487
4.92305
4.9213
4.91964
4.9181
4.91672
4.91551
4.91451
4.91376
4.91329
4.91315
4.91339
4.91396
4.96744
4.96643
4.96538
4.96428
4.96315
4.96197
4.96075
4.95948
4.95816
4.9568
4.9554