/*--------------------------------*- C++ -*----------------------------------*\
| =========                 |                                                 |
| \\      /  F ield         | OpenFOAM: The Open Source CFD Toolbox           |
|  \\    /   O peration     | Version:  5.x                                   |
|   \\  /    A nd           | Web:      www.OpenFOAM.org                      |
|    \\/     M anipulation  |                                                 |
\*---------------------------------------------------------------------------*/
FoamFile
{
    version     2.0;
    format      ascii;
    class       surfaceScalarField;
    location    "400";
    object      phi;
}
// * * * * * * * * * * * * * * * * * * * * * * * * * * * * * * * * * * * * * //

dimensions      [0 3 -1 0 0 0 0];

internalField   nonuniform List<scalar> 
51690
(
0.000889985
0.00018209
-0.001072
0.000589036
0.00030095
0.000323746
0.000265279
0.000137662
0.000186071
2.60807e-05
0.000111567
-4.15657e-05
6.7644e-05
-7.24944e-05
3.09298e-05
-8.03254e-05
7.83524e-06
-7.2834e-05
-7.48685e-06
-5.9668e-05
-1.3162e-05
-4.5871e-05
-1.37934e-05
-3.29858e-05
-1.28824e-05
-2.87536e-05
-4.22934e-06
-1.96828e-05
-9.06784e-06
-1.28978e-05
-6.78175e-06
-7.99979e-06
-4.89466e-06
-3.28326e-06
-4.71278e-06
3.05083e-06
-6.33015e-06
1.13317e-05
-8.27704e-06
2.08036e-05
-9.46805e-06
3.09036e-05
-1.00965e-05
4.04157e-05
-9.50856e-06
4.9565e-05
-9.14587e-06
5.79924e-05
-8.42408e-06
6.56757e-05
-7.68014e-06
7.31288e-05
-7.45013e-06
7.9815e-05
-6.68326e-06
8.61223e-05
-6.30453e-06
9.16108e-05
-5.48597e-06
9.61991e-05
-4.58572e-06
9.98965e-05
-3.69503e-06
0.000102592
-2.69323e-06
0.000104726
-2.13202e-06
0.000105951
-1.22292e-06
0.000106655
-7.02076e-07
0.00010625
4.07363e-07
0.000104867
1.38466e-06
0.000102377
2.49118e-06
9.65903e-05
5.78898e-06
1.4296e-06
9.51618e-05
0.000875214
8.8932e-05
-0.000782046
0.000889953
0.000286212
0.000792784
0.000362448
0.000620562
0.00035829
0.000440738
0.00029139
0.000297144
0.000211237
0.000197961
0.000130113
0.000137863
6.79334e-05
0.000106199
2.41784e-05
9.30846e-05
-4.60267e-08
8.99494e-05
-1.06568e-05
9.25422e-05
-1.54741e-05
9.44543e-05
-6.14036e-06
9.67609e-05
-1.13734e-05
0.000100502
-1.05214e-05
0.000104411
-8.80282e-06
0.000107443
-7.74365e-06
0.000110568
-9.45465e-06
0.000113914
-1.16221e-05
0.000117452
-1.30053e-05
0.000121937
-1.45803e-05
0.000126636
-1.42062e-05
0.000131615
-1.41227e-05
0.000136782
-1.35899e-05
0.000141832
-1.27292e-05
0.000147091
-1.27075e-05
0.000152071
-1.16619e-05
0.000156931
-1.11629e-05
0.00016156
-1.01136e-05
0.000166042
-9.06577e-06
0.000170357
-8.00885e-06
0.000174191
-6.5263e-06
0.000177671
-5.60984e-06
0.000180446
-3.99728e-06
0.000182697
-2.95196e-06
0.000183953
-8.47138e-07
0.000184281
1.05745e-06
0.000183332
3.44142e-06
0.000179542
9.58036e-06
3.24373e-06
0.000177728
0.000749893
1.40099e-05
-0.000674963
0.000835145
0.000200961
0.000878678
0.000318915
0.000847143
0.000389827
0.000747348
0.000391184
0.000607669
0.000350916
0.000460989
0.000276792
0.000336857
0.000192065
0.000246516
0.00011452
0.000192322
5.41488e-05
0.000163867
1.77993e-05
0.000153931
-5.53718e-06
0.000148988
-1.19699e-06
0.000147768
-1.01527e-05
0.000148398
-1.11504e-05
0.000151371
-1.17751e-05
0.000154124
-1.04964e-05
0.000157
-1.233e-05
0.000160019
-1.464e-05
0.00016324
-1.62256e-05
0.000167976
-1.93155e-05
0.000173149
-1.93792e-05
0.000179037
-2.00091e-05
0.000185353
-1.99053e-05
0.000191571
-1.89467e-05
0.000198136
-1.92709e-05
0.000204268
-1.7793e-05
0.000210353
-1.72476e-05
0.000216142
-1.59022e-05
0.000221703
-1.46251e-05
0.000227081
-1.33866e-05
0.000231881
-1.13259e-05
0.000236319
-1.00466e-05
0.000239884
-7.56223e-06
0.000242879
-5.94584e-06
0.000244884
-2.8524e-06
0.000246155
-2.12801e-07
0.000246188
3.40888e-06
0.000243328
1.24411e-05
4.62562e-06
0.000241946
0.000678324
-3.67912e-05
-0.000627519
0.000743383
0.000135903
0.000814653
0.000247646
0.000864661
0.000339819
0.000865181
0.000390664
0.000807892
0.000408205
0.000702913
0.000381771
0.000576471
0.000318506
0.000452591
0.0002384
0.000354233
0.000152507
0.000285593
8.64397e-05
0.0002478
3.22564e-05
0.000224161
2.24425e-05
0.000211932
2.07643e-06
0.000205536
-4.75287e-06
0.000204964
-1.12026e-05
0.000205598
-1.11298e-05
0.000207834
-1.45655e-05
0.000210856
-1.76616e-05
0.00021416
-1.95286e-05
0.000219284
-2.44386e-05
0.00022484
-2.49347e-05
0.000231388
-2.65566e-05
0.000238538
-2.70543e-05
0.000245678
-2.60865e-05
0.000253419
-2.70108e-05
0.000260811
-2.51838e-05
0.000268341
-2.47775e-05
0.000275514
-2.30743e-05
0.000282281
-2.13916e-05
0.00028868
-1.97845e-05
0.000294259
-1.69041e-05
0.000299324
-1.51108e-05
0.00030324
-1.1477e-05
0.000306442
-9.14712e-06
0.000308446
-4.85654e-06
0.000309614
-1.38016e-06
0.000309417
3.60716e-06
0.000306257
1.56016e-05
6.20851e-06
0.000304674
0.0006341
-7.83381e-05
-0.000592551
0.000684218
8.57858e-05
0.000744494
0.000187372
0.000809689
0.000274624
0.000860368
0.000339985
0.000876775
0.000391798
0.000845852
0.000412694
0.000770594
0.000393764
0.000664846
0.000344147
0.000554678
0.000262676
0.000456828
0.00018429
0.000387532
0.000101552
0.000335867
7.41083e-05
0.000303342
3.4602e-05
0.000283545
1.50441e-05
0.000275525
-3.1814e-06
0.000271062
-6.66629e-06
0.000270266
-1.37692e-05
0.000271375
-1.87701e-05
0.000273221
-2.13737e-05
0.000277522
-2.87391e-05
0.00028242
-2.98326e-05
0.000288785
-3.29203e-05
0.000296134
-3.44034e-05
0.000303722
-3.36735e-05
0.00031227
-3.5558e-05
0.000320514
-3.34275e-05
0.000329051
-3.33142e-05
0.000337279
-3.13019e-05
0.000345116
-2.9228e-05
0.000352598
-2.72657e-05
0.000359184
-2.34896e-05
0.000365192
-2.11193e-05
0.000369827
-1.61107e-05
0.00037352
-1.28407e-05
0.000375596
-6.93136e-06
0.000376465
-2.24933e-06
0.0003756
4.4727e-06
0.000371391
1.98104e-05
8.54638e-06
0.000369054
0.000606249
-0.000114617
-0.000569969
0.000648684
4.33514e-05
0.000697278
0.000138778
0.000753992
0.00021791
0.000813005
0.000280973
0.000862675
0.000342128
0.000886825
0.000388544
0.000873188
0.0004074
0.000818822
0.000398513
0.000736271
0.000345226
0.000641225
0.000279336
0.000557194
0.000185583
0.000482262
0.000149041
0.000425805
9.10587e-05
0.000386537
5.43127e-05
0.000365986
1.73707e-05
0.000352528
6.7922e-06
0.000345853
-7.09316e-06
0.000342972
-1.58884e-05
0.000341883
-2.0284e-05
0.000344393
-3.12488e-05
0.00034788
-3.33191e-05
0.000353375
-3.84141e-05
0.000360281
-4.1309e-05
0.0003677
-4.10921e-05
0.000376494
-4.43511e-05
0.000385075
-4.20076e-05
0.000394147
-4.23862e-05
0.000402998
-4.01514e-05
0.000411525
-3.77548e-05
0.000419758
-3.54983e-05
0.000427049
-3.07799e-05
0.000433779
-2.78491e-05
0.000439038
-2.13684e-05
0.000443281
-1.70838e-05
0.000445644
-9.29322e-06
0.000446496
-3.10058e-06
0.000445153
5.81603e-06
0.000439833
2.51303e-05
1.18821e-05
0.000436498
0.000587901
-0.00014761
-0.000554907
0.000626073
5.17918e-06
0.000668105
9.6747e-05
0.000715722
0.000170293
0.000768377
0.000228319
0.00082306
0.000287445
0.000870774
0.00034083
0.000898426
0.000379748
0.000894922
0.000402017
0.000858016
0.000382133
0.000793539
0.000343812
0.000720292
0.000258831
0.000641098
0.000228236
0.000569621
0.000162536
0.000512131
0.000111804
0.000476628
5.28738e-05
0.000451138
3.22838e-05
0.000435962
8.08351e-06
0.00042705
-6.97582e-06
0.000421422
-1.46555e-05
0.000420873
-3.06994e-05
0.000421858
-3.43029e-05
0.00042553
-4.20865e-05
0.000431172
-4.69499e-05
0.000437737
-4.76567e-05
0.000446252
-5.2866e-05
0.000454764
-5.05192e-05
0.000464029
-5.16504e-05
0.000473196
-4.93184e-05
0.000482137
-4.66948e-05
0.000490854
-4.4215e-05
0.000498587
-3.85124e-05
0.000505782
-3.50444e-05
0.000511414
-2.69997e-05
0.000516002
-2.1672e-05
0.000518557
-1.18479e-05
0.000519427
-3.96992e-06
0.00051777
7.47353e-06
0.000511555
3.13455e-05
1.61577e-05
0.000507279
0.00057528
-0.000178388
-0.000544501
0.000610741
-3.02823e-05
0.0006493
5.81887e-05
0.000691621
0.000127972
0.000737631
0.000182309
0.000787735
0.000237342
0.000839169
0.000289397
0.000884227
0.00033469
0.00091296
0.000373284
0.000916271
0.000378821
0.000891063
0.000369021
0.000845755
0.000304138
0.00078269
0.000291301
0.000713147
0.000232079
0.000647625
0.000177326
0.000600661
9.98384e-05
0.000563506
6.94398e-05
0.000538764
3.28259e-05
0.000522465
9.32451e-06
0.000511046
-3.23583e-06
0.000506362
-2.60154e-05
0.000503971
-3.19111e-05
0.000505087
-4.3202e-05
0.000508801
-5.06634e-05
0.000513876
-5.27307e-05
0.000521506
-6.04956e-05
0.000529427
-5.84396e-05
0.000538465
-6.06875e-05
0.000547612
-5.84643e-05
0.000556686
-5.57687e-05
0.000565668
-5.31968e-05
0.00057368
-4.65236e-05
0.000581195
-4.25586e-05
0.00058705
-3.28544e-05
0.00059182
-2.64408e-05
0.000594416
-1.44438e-05
0.000595206
-4.75914e-06
0.000593237
9.44289e-06
0.000586245
3.83379e-05
2.12478e-05
0.000581155
0.000566553
-0.00020757
-0.000537371
0.000600027
-6.37565e-05
0.000636367
2.18485e-05
0.000675801
8.85385e-05
0.000717803
0.000140307
0.000763141
0.000192004
0.000811616
0.000240922
0.000860039
0.000286266
0.000902853
0.000330469
0.000931205
0.00035047
0.000938428
0.000361797
0.000924142
0.000318424
0.000888192
0.00032725
0.000835501
0.00028477
0.000775512
0.000237316
0.000725442
0.000149909
0.000681244
0.000113638
0.000648635
6.54351e-05
0.000625265
3.26952e-05
0.000607886
1.41436e-05
0.000598658
-1.67866e-05
0.0005925
-2.57524e-05
0.000590635
-4.13361e-05
0.000591976
-5.20045e-05
0.000595123
-5.58773e-05
0.000601437
-6.68094e-05
0.00060839
-6.53919e-05
0.00061686
-6.91569e-05
0.000625688
-6.72919e-05
0.000634639
-6.47198e-05
0.000643673
-6.22304e-05
0.0006518
-5.46496e-05
0.000659512
-5.02706e-05
0.00066552
-3.88627e-05
0.000670412
-3.13322e-05
0.00067299
-1.70215e-05
0.000673634
-5.40337e-06
0.000671323
1.17543e-05
0.000663603
4.60581e-05
2.70709e-05
0.00065778
0.000560781
-0.000235612
-0.000532739
0.000592746
-9.57216e-05
0.000627409
-1.28142e-05
0.000664949
5.09981e-05
0.000704664
0.000100592
0.000746999
0.000149669
0.000792214
0.000195708
0.000839142
0.000239338
0.00088563
0.000283982
0.000925696
0.000310405
0.000953374
0.000334119
0.000963893
0.000307905
0.000955408
0.000335736
0.000926655
0.000313522
0.000882738
0.000281233
0.000838847
0.000193802
0.000794664
0.000157822
0.000758274
0.000101825
0.000729899
6.10704e-05
0.000707612
3.64312e-05
0.000694257
-3.43049e-06
0.000684571
-1.60661e-05
0.000679792
-3.65564e-05
0.000678733
-5.09449e-05
0.00067987
-5.70143e-05
0.000684687
-7.16259e-05
0.000690472
-7.11765e-05
0.000698169
-7.68529e-05
0.000706506
-7.56282e-05
0.000715186
-7.33997e-05
0.00072414
-7.11829e-05
0.000732278
-6.27878e-05
0.000740104
-5.80956e-05
0.000746219
-4.49768e-05
0.000751214
-3.63275e-05
0.000753791
-1.95977e-05
0.000754309
-5.92066e-06
0.000751679
1.43843e-05
0.000743293
5.44452e-05
3.35722e-05
0.000736792
0.000557341
-0.00026288
-0.000530073
0.000588201
-0.000126581
0.000621566
-4.61791e-05
0.000657654
1.49096e-05
0.00069583
6.24163e-05
0.000736356
0.000109143
0.000779406
0.000152658
0.000824353
0.000194391
0.000870642
0.000237693
0.000914766
0.00026628
0.000952925
0.00029596
0.000979536
0.000281295
0.000992719
0.000322553
0.000987551
0.00031869
0.00096446
0.000304324
0.000933645
0.000224617
0.000896497
0.00019497
0.000861609
0.000136713
0.000831573
9.11067e-05
0.000806316
6.1688e-05
0.000789791
1.30954e-05
0.000777235
-3.50988e-06
0.000769995
-2.93162e-05
0.000766864
-4.7813e-05
0.000766231
-5.63809e-05
0.000769647
-7.50414e-05
0.000774315
-7.58439e-05
0.000781224
-8.37616e-05
0.000789035
-8.34385e-05
0.000797408
-8.17722e-05
0.000806245
-8.00203e-05
0.00081438
-7.09227e-05
0.000822306
-6.60211e-05
0.000828536
-5.12064e-05
0.000833653
-4.14444e-05
0.000836277
-2.22215e-05
0.000836736
-6.38e-06
0.000833874
1.72465e-05
0.000824935
6.33849e-05
4.06848e-05
0.000817822
0.000555775
-0.000289672
-0.000528983
0.000585878
-0.000156684
0.000618292
-7.85932e-05
0.000653252
-2.00502e-05
0.000690243
2.54253e-05
0.000729509
6.98775e-05
0.000771176
0.00011099
0.000814709
0.000150858
0.000860074
0.000192328
0.000905123
0.000221231
0.000947877
0.000253207
0.000983533
0.000245639
0.00101123
0.00029486
0.00102505
0.000304863
0.00102237
0.000307005
0.00100785
0.000239141
0.000982875
0.000219941
0.000954624
0.000164965
0.000926964
0.000118767
0.000901455
8.71969e-05
0.000883248
3.13029e-05
0.00086872
1.1019e-05
0.000859572
-2.01681e-05
0.000854767
-4.30082e-05
0.000852714
-5.4327e-05
0.000854978
-7.73053e-05
0.000858738
-7.96028e-05
0.000864994
-9.00172e-05
0.000872378
-9.0822e-05
0.000880516
-8.99095e-05
0.000889286
-8.87903e-05
0.000897469
-7.91045e-05
0.000905538
-7.40897e-05
0.000911943
-5.76106e-05
0.000917241
-4.67423e-05
0.000919988
-2.49682e-05
0.000920477
-6.86797e-06
0.000917497
2.02266e-05
0.00090816
7.27226e-05
4.83196e-05
0.000900526
0.000555735
-0.000316237
-0.000529171
0.000585379
-0.000186327
0.000617161
-0.000110375
0.000651304
-5.41932e-05
0.000687387
-1.06578e-05
0.00072568
3.15846e-05
0.000766346
7.03246e-05
0.000808914
0.00010829
0.000853501
0.000147741
0.000898575
0.000176158
0.000943213
0.000208568
0.000983617
0.000205235
0.00102009
0.000258389
0.00104735
0.000277604
0.00106162
0.000292733
0.00106323
0.000237533
0.00105284
0.000230324
0.00103507
0.000182736
0.00101374
0.000140099
0.000991239
0.000109699
0.000973473
4.90689e-05
0.000958284
2.62084e-05
0.00094797
-9.85384e-06
0.000941936
-3.69743e-05
0.000938779
-5.11692e-05
0.000940106
-7.86322e-05
0.000943147
-8.26433e-05
0.0009489
-9.57699e-05
0.000955991
-9.79122e-05
0.000964013
-9.79316e-05
0.000972816
-9.75933e-05
0.00098114
-8.74277e-05
0.00098943
-8.23801e-05
0.000996093
-6.42734e-05
0.00100165
-5.23016e-05
0.00100462
-2.79315e-05
0.00100523
-7.48001e-06
0.00100225
2.32079e-05
0.000992677
8.22935e-05
5.63749e-05
0.000984621
0.000556944
-0.00034278
-0.000530401
0.000586381
-0.000215763
0.000617815
-0.000141809
0.000651441
-8.78194e-05
0.000686897
-4.61136e-05
0.000724466
-5.98458e-06
0.00076436
3.04315e-05
0.000806205
6.64449e-05
0.000850199
0.000103747
0.000895122
0.000131235
0.00094058
0.00016311
0.000983528
0.000162287
0.00102512
0.000216799
0.0010612
0.000241524
0.00108815
0.000265776
0.00110367
0.000222021
0.00110778
0.00022621
0.0011024
0.00018812
0.00109038
0.000152113
0.00107405
0.000126029
0.00105928
6.38391e-05
0.00104529
4.02026e-05
0.00103497
4.61797e-07
0.0010284
-3.04007e-05
0.00102455
-4.73196e-05
0.00102517
-7.92518e-05
0.00102764
-8.51145e-05
0.00103298
-0.00010111
0.00103985
-0.00010478
0.00104783
-0.000105908
0.00105674
-0.000106502
0.00106529
-9.59753e-05
0.00107388
-9.09697e-05
0.00108088
-7.1278e-05
0.00108678
-5.81972e-05
0.00109004
-3.1195e-05
0.00109086
-8.30206e-06
0.00108798
2.60931e-05
0.00107832
9.19546e-05
6.47573e-05
0.00106994
0.000559174
-0.000369479
-0.000532475
0.00058862
-0.00024521
0.000619952
-0.000173142
0.000653336
-0.000121203
0.000688443
-8.12202e-05
0.000725551
-4.30926e-05
0.000764897
-8.91501e-06
0.000806201
2.51412e-05
0.00084973
6.02177e-05
0.000894482
8.64834e-05
0.000940337
0.000117256
0.000984765
0.000117859
0.0010294
0.000172163
0.00107113
0.000199797
0.00110703
0.000229878
0.00113353
0.000195516
0.00115047
0.000209273
0.00115758
0.000181006
0.00115646
0.000153237
0.00114873
0.000133761
0.00113943
7.31336e-05
0.00112879
5.08485e-05
0.00112005
9.19765e-06
0.001114
-2.43505e-05
0.00111015
-4.34659e-05
0.00111046
-7.95667e-05
0.0011126
-8.72557e-05
0.00111765
-0.000106158
0.00112435
-0.000111475
0.00113229
-0.000113855
0.00114131
-0.000115522
0.00115011
-0.000104767
0.00115903
-9.98883e-05
0.00116642
-7.86737e-05
0.00117271
-6.44834e-05
0.00117633
-3.48195e-05
0.00117743
-9.39805e-06
0.00117471
2.88114e-05
0.00116507
0.000101599
7.33978e-05
0.00115643
0.000562234
-0.000396486
-0.000535227
0.000591875
-0.000274851
0.000623319
-0.000204585
0.000656702
-0.000154586
0.000691718
-0.000116236
0.000728628
-8.0003e-05
0.000767675
-4.79617e-05
0.000808642
-1.58252e-05
0.000851844
1.70151e-05
0.000896459
4.1869e-05
0.00094253
7.11848e-05
0.000987905
7.24838e-05
0.00103444
0.000125625
0.00107982
0.000154421
0.00112187
0.000187832
0.00115663
0.000160746
0.00118409
0.000181813
0.0012026
0.000162499
0.0012126
0.000143241
0.00121482
0.00013154
0.00121295
7.5e-05
0.00120772
5.60772e-05
0.00120236
1.45626e-05
0.00119821
-2.02006e-05
0.00119534
-4.06014e-05
0.001196
-8.02247e-05
0.00119824
-8.94943e-05
0.00120325
-0.000111166
0.00120991
-0.000118135
0.00121788
-0.000121827
0.00122701
-0.000124653
0.00123603
-0.000113778
0.00124525
-0.000109108
0.00125302
-8.64474e-05
0.0012597
-7.11654e-05
0.00126371
-3.88283e-05
0.00126511
-1.07984e-05
0.0012626
3.13268e-05
0.00125303
0.000111164
8.22621e-05
0.00124417
0.000565961
-0.000423935
-0.000538512
0.000595959
-0.000304848
0.000627698
-0.000236324
0.000661293
-0.000188181
0.000696451
-0.000151394
0.000733412
-0.000116964
0.00077241
-8.69598e-05
0.000813269
-5.6684e-05
0.000856328
-2.60436e-05
0.000900901
-2.70442e-06
0.000947142
2.49442e-05
0.000993198
2.6428e-05
0.00104101
7.78176e-05
0.00108881
0.000106612
0.00113508
0.000141564
0.00117592
0.000119906
0.00121162
0.000146111
0.00123983
0.00013429
0.0012602
0.000122872
0.00127268
0.000119066
0.00127941
6.82641e-05
0.00128125
5.42437e-05
0.00128097
1.48414e-05
0.00128024
-1.94712e-05
0.00127959
-3.99561e-05
0.00128148
-8.21164e-05
0.00128446
-9.24715e-05
0.00128986
-0.000116563
0.00129676
-0.000125036
0.00130492
-0.000129986
0.00131424
-0.000133969
0.00132348
-0.000123026
0.00133298
-0.000118605
0.00134109
-9.45578e-05
0.00134813
-7.82032e-05
0.0013525
-4.32e-05
0.0013542
-1.24983e-05
0.00135189
3.36345e-05
0.00134244
0.000120622
9.13478e-05
0.00133335
0.000570209
-0.000451946
-0.000542198
0.000600707
-0.000335346
0.000632905
-0.000268523
0.000666898
-0.000222173
0.000702403
-0.000186899
0.000739641
-0.000154202
0.000778831
-0.000126149
0.000819818
-9.76718e-05
0.000862947
-6.9172e-05
0.000907635
-4.7392e-05
0.000954101
-2.15219e-05
0.00100074
-2.02084e-05
0.00104948
2.90732e-05
0.001099
5.70976e-05
0.00114822
9.23422e-05
0.00119351
7.46158e-05
0.00123551
0.000104112
0.00127163
9.81706e-05
0.00130109
9.34089e-05
0.00132331
9.68482e-05
0.00133902
5.25485e-05
0.00134894
4.43243e-05
0.00135513
8.65049e-06
0.00135927
-2.36082e-05
0.00136217
-4.28538e-05
0.00136636
-8.63081e-05
0.00137091
-9.70226e-05
0.0013773
-0.000122952
0.00138487
-0.000132607
0.00139351
-0.000138623
0.00140319
-0.000143655
0.00141278
-0.000132611
0.00142259
-0.000128415
0.00143103
-0.000102995
0.00143838
-8.55562e-05
0.00144307
-4.78851e-05
0.00144503
-1.44578e-05
0.0014429
3.57623e-05
0.00143354
0.000129982
0.00010068
0.00142421
0.00057485
-0.000480627
-0.000546168
0.000605975
-0.000366471
0.000638778
-0.000301325
0.000673333
-0.000256728
0.000709368
-0.000222935
0.000747085
-0.00019192
0.000786687
-0.00016575
0.000828033
-0.000139018
0.000871456
-0.000112595
0.000916449
-9.23852e-05
0.000963269
-6.83415e-05
0.0010105
-6.7443e-05
0.00106005
-2.04715e-05
0.00111087
6.27966e-06
0.00116224
4.09656e-05
0.00121085
2.60092e-05
0.00125763
5.73285e-05
0.00130004
5.57588e-05
0.00133716
5.62946e-05
0.00136812
6.5888e-05
0.00139254
2.81262e-05
0.00141092
2.59466e-05
0.00142448
-4.90814e-06
0.00143466
-3.37877e-05
0.00144234
-5.05383e-05
0.00144996
-9.3925e-05
0.00145705
-0.000104111
0.00146519
-0.000131091
0.00147401
-0.000141426
0.00148355
-0.000148163
0.0014939
-0.000154007
0.00150403
-0.000142739
0.00151427
-0.00013866
0.0015231
-0.000111823
0.00153078
-9.32344e-05
0.00153575
-5.28565e-05
0.00153792
-1.66322e-05
0.00153593
3.77564e-05
0.00152664
0.00013927
0.000110299
0.00151702
0.000579765
-0.000510079
-0.000550313
0.000611636
-0.000398342
0.000645173
-0.000334862
0.000680437
-0.000291992
0.000717165
-0.000259663
0.000755542
-0.000230297
0.000795755
-0.000205963
0.000837672
-0.000180935
0.00088161
-0.000156534
0.000927116
-0.000137891
0.000974461
-0.000115686
0.00102239
-0.000115371
0.00107273
-7.08127e-05
0.00112467
-4.56566e-05
0.00117773
-1.20996e-05
0.00122891
-2.51682e-05
0.00127938
6.86217e-06
0.00132676
8.37298e-06
0.00137016
1.28934e-05
0.00140867
2.73831e-05
0.0014411
-4.30467e-06
0.00146776
-7.14674e-07
0.00148907
-2.62158e-05
0.00150608
-5.0796e-05
0.00151956
-6.40246e-05
0.00153166
-0.00010602
0.00154228
-0.000114732
0.00155302
-0.000141828
0.00156378
-0.000152187
0.00157477
-0.00015915
0.00158619
-0.000165434
0.00159717
-0.000153712
0.00160806
-0.000149551
0.00161742
-0.000121181
0.0016255
-0.000101316
0.00163079
-5.81422e-05
0.00163316
-1.90074e-05
0.00163126
3.96565e-05
0.00162201
0.000148526
0.000120255
0.00161205
0.00058485
-0.000540394
-0.000554536
0.000617572
-0.000431063
0.000651962
-0.000369252
0.000688069
-0.000328099
0.000725635
-0.000297229
0.000764833
-0.000269495
0.000805836
-0.000246966
0.000848518
-0.000223617
0.00089318
-0.000201195
0.000939403
-0.000184114
0.000987465
-0.000163748
0.00103623
-0.000164136
0.00108745
-0.000122034
0.00114047
-9.86726e-05
0.00119499
-6.66191e-05
0.00124828
-7.84599e-05
0.00130168
-4.65362e-05
0.00135304
-4.29903e-05
0.00140158
-3.56422e-05
0.00144645
-1.7489e-05
0.00148599
-4.38455e-05
0.00152039
-3.51141e-05
0.00154938
-5.52082e-05
0.00157359
-7.50029e-05
0.00159357
-8.40064e-05
0.00161101
-0.000123461
0.00162608
-0.000129802
0.00164028
-0.000156024
0.00165374
-0.00016565
0.00166681
-0.00017222
0.00167982
-0.000178444
0.00169204
-0.000165931
0.00170387
-0.000161387
0.00171399
-0.000131293
0.00172262
-0.000109954
0.00172832
-6.38377e-05
0.00173094
-2.16262e-05
0.00172913
4.1463e-05
0.00171988
0.000157774
0.00013059
0.00170955
0.000590008
-0.000571659
-0.000558744
0.00062368
-0.000464735
0.000659032
-0.000404605
0.000696102
-0.000365169
0.00073464
-0.000335767
0.000774806
-0.00030966
0.00081676
-0.00028892
0.000860382
-0.000267239
0.000905956
-0.000246769
0.000953092
-0.000231251
0.00100206
-0.000212719
0.00105183
-0.000213902
0.00110406
-0.000174269
0.00115822
-0.000152826
0.00121412
-0.000122518
0.00126928
-0.000133622
0.00132514
-0.000102394
0.00137978
-9.76293e-05
0.00143255
-8.84142e-05
0.00148276
-6.77015e-05
0.00152849
-8.95738e-05
0.00156989
-7.65121e-05
0.00160618
-9.14999e-05
0.00163759
-0.000106413
0.00166442
-0.000110834
0.00168782
-0.00014686
0.00170809
-0.000150076
0.00172654
-0.000174471
0.00174346
-0.00018257
0.00175928
-0.000188046
0.00177445
-0.000193607
0.00178838
-0.000179869
0.00180154
-0.000174541
0.0018127
-0.000142453
0.00182211
-0.000119365
0.00182838
-7.01021e-05
0.00183134
-2.45908e-05
0.00182968
4.31243e-05
0.00182045
0.000167003
0.000141333
0.00180971
0.000595153
-0.000603956
-0.000562856
0.000629867
-0.000499449
0.000666283
-0.00044102
0.000704428
-0.000403314
0.000744058
-0.000375397
0.000785324
-0.000350926
0.000828376
-0.000331972
0.000873097
-0.00031196
0.000919756
-0.000293428
0.000967987
-0.000279482
0.00101805
-0.000262786
0.00106899
-0.00026484
0.0011224
-0.000227676
0.0011778
-0.000208229
0.00123511
-0.000179824
0.00129205
-0.00019056
0.0013501
-0.000160445
0.00140756
-0.000155087
0.00146392
-0.000144773
0.00151865
-0.000122432
0.00156973
-0.000140655
0.00161734
-0.000124126
0.00166037
-0.00013453
0.00169872
-0.000144763
0.00173244
-0.000144558
0.00176215
-0.000176562
0.00178817
-0.000176099
0.00181152
-0.000197825
0.00183259
-0.000203637
0.00185184
-0.000207294
0.00186976
-0.000211522
0.00188593
-0.000196048
0.00190084
-0.000189445
0.0019134
-0.000155017
0.00192387
-0.00012983
0.00193092
-7.71547e-05
0.00193439
-2.80608e-05
0.00193298
4.45328e-05
0.00192384
0.000176148
0.000152473
0.0019127
0.000600208
-0.000637365
-0.000566799
0.000636052
-0.000535293
0.000673627
-0.000478595
0.00071295
-0.000442638
0.000753786
-0.000416232
0.000796274
-0.000393415
0.000840558
-0.000376256
0.000886523
-0.000357925
0.000934425
-0.00034133
0.000983917
-0.000328974
0.00103525
-0.000314122
0.00108753
-0.000317116
0.00114228
-0.000282421
0.00119907
-0.000265024
0.00125787
-0.000238629
0.00131659
-0.000249275
0.00137672
-0.000220572
0.00143672
-0.000215095
0.00149623
-0.000204282
0.00155487
-0.000181067
0.00161062
-0.000196404
0.00166372
-0.000177232
0.00171287
-0.00018368
0.00175774
-0.000189631
0.00179818
-0.000184998
0.00183429
-0.000212672
0.00186639
-0.000208194
0.00189514
-0.000226577
0.00192094
-0.000229433
0.00194421
-0.000230572
0.00196547
-0.000232774
0.00198442
-0.000215003
0.00200154
-0.000206566
0.00201591
-0.000169387
0.00202776
-0.000141678
0.00203587
-8.52634e-05
0.00204005
-3.22443e-05
0.00203906
4.55316e-05
0.00203011
0.000185096
0.000163964
0.00201862
0.000605107
-0.000671962
-0.00057051
0.000642165
-0.000572351
0.000680988
-0.000517418
0.000721589
-0.000483238
0.000763734
-0.000458378
0.000807559
-0.00043724
0.000853199
-0.000421895
0.000900541
-0.000405267
0.000949832
-0.000390621
0.00100074
-0.00037988
0.00105351
-0.000366889
0.00110728
-0.000370891
0.00116353
-0.000338668
0.00122187
-0.000323364
0.00128229
-0.000299054
0.00134285
-0.000309831
0.00140503
-0.000282755
0.00146746
-0.00027752
0.00152985
-0.000266674
0.00159197
-0.000243184
0.00165186
-0.000256294
0.00170985
-0.000235221
0.00176453
-0.000238362
0.00181543
-0.000240536
0.00186227
-0.000231837
0.00190471
-0.000255108
0.001943
-0.000246486
0.00197747
-0.000261043
0.00200843
-0.0002604
0.00203626
-0.000258396
0.00206138
-0.000257898
0.00208364
-0.000237258
0.00210345
-0.00022638
0.00212005
-0.000185988
0.00213365
-0.000155272
0.00214312
-9.47363e-05
0.00214827
-3.73921e-05
0.00214788
4.59196e-05
0.00213929
0.000193685
0.000175712
0.00212754
0.000609799
-0.000707822
-0.00057394
0.000648151
-0.000610703
0.000688309
-0.000557576
0.000730279
-0.000525208
0.000773833
-0.000501932
0.000819102
-0.000482509
0.000866213
-0.000469005
0.000915058
-0.000454113
0.000965871
-0.000441434
0.00101833
-0.000432343
0.00107268
-0.000421239
0.00112811
-0.000426316
0.00118602
-0.000396575
0.00124605
-0.000383403
0.00130824
-0.000361239
0.00137073
-0.000372325
0.00143502
-0.00034704
0.00149982
-0.000342326
0.00156496
-0.000331808
0.00163029
-0.000308513
0.00169395
-0.000319952
0.00175634
-0.000297616
0.00181605
-0.000298067
0.00187251
-0.000297003
0.00192537
-0.000284695
0.00197393
-0.00030367
0.00201839
-0.000290947
0.00205873
-0.000301377
0.00209517
-0.00029684
0.00212794
-0.000291171
0.0021574
-0.000287358
0.00218344
-0.00026329
0.00220641
-0.00024935
0.00222567
-0.000205251
0.00224139
-0.000170995
0.00225256
-0.000105907
0.00225896
-4.37847e-05
0.00225941
4.54641e-05
0.00225138
0.000201723
0.000187591
0.0022395
0.000614244
-0.000745018
-0.000577048
0.000653968
-0.000650428
0.000695544
-0.000599151
0.000738972
-0.000568636
0.000784031
-0.000546992
0.000830846
-0.000529323
0.000879537
-0.000517696
0.000930002
-0.000504578
0.000982464
-0.000493897
0.00103662
-0.000486496
0.00109269
-0.000477313
0.00114991
-0.000483534
0.00120963
-0.000456292
0.00127152
-0.000445292
0.00133561
-0.000425329
0.00140016
-0.000436876
0.00146663
-0.000413508
0.00153384
-0.000409537
0.00160166
-0.000399632
0.00167005
-0.000376902
0.00173723
-0.000387133
0.00180368
-0.000364068
0.001868
-0.000362388
0.00192962
-0.000358616
0.00198811
-0.000343189
0.00204254
-0.000358095
0.00209303
-0.000341441
0.00213927
-0.00034761
0.00218135
-0.000338926
0.00221937
-0.000329189
0.00225354
-0.000321527
0.00228377
-0.000293519
0.00231032
-0.000275906
0.00233267
-0.000227592
0.0023509
-0.00018923
0.00236412
-0.000119123
0.00237206
-5.1724e-05
0.00237362
4.39064e-05
0.00236635
0.000208984
0.000199442
0.0023545
0.000618417
-0.000783624
-0.000579811
0.000659591
-0.000691601
0.000702665
-0.000642226
0.000747638
-0.000613609
0.000794294
-0.000593648
0.000842752
-0.000577781
0.000893129
-0.000568073
0.000945325
-0.000556774
0.000999557
-0.000548128
0.00105553
-0.000542468
0.00111346
-0.000535246
0.00117261
-0.000542684
0.00123429
-0.000517966
0.00129817
-0.000509179
0.00136431
-0.000491468
0.00143105
-0.000503613
0.00149981
-0.000482266
0.00156949
-0.000479219
0.00164001
-0.000470158
0.0017114
-0.000448286
0.00178196
-0.000457691
0.00185223
-0.000434343
0.00192087
-0.000431021
0.00198728
-0.000425032
0.00205106
-0.000406971
0.00211107
-0.000418106
0.00216741
-0.000397779
0.00221949
-0.000399684
0.00226729
-0.000386729
0.00231074
-0.000372639
0.0023499
-0.000360689
0.00238467
-0.00032829
0.00241519
-0.000306426
0.002441
-0.000253399
0.00246212
-0.00021035
0.00247773
-0.000134731
0.00248753
-6.15204e-05
0.00249046
4.09744e-05
0.00248421
0.00021523
0.000211085
0.00247257
0.000622308
-0.000823714
-0.000582218
0.000665008
-0.000734301
0.000709663
-0.000686881
0.000756266
-0.000660212
0.000804609
-0.00064199
0.000854806
-0.000627979
0.00090697
-0.000620237
0.000961007
-0.00061081
0.00101712
-0.000604244
0.00107503
-0.000600379
0.00113495
-0.000595167
0.00119617
-0.000603899
0.00125994
-0.000581736
0.00132597
-0.000575209
0.0013943
-0.000559801
0.00146336
-0.00057267
0.00153453
-0.000553434
0.00160678
-0.000551467
0.00168006
-0.000543439
0.00175443
-0.000522661
0.0018283
-0.000531562
0.00190226
-0.000508296
0.00197499
-0.000503755
0.00204595
-0.000495989
0.00211473
-0.00047575
0.00218006
-0.000483444
0.00224203
-0.000459749
0.00229983
-0.000457483
0.00235334
-0.000440239
0.00240233
-0.000421622
0.00244668
-0.000405045
0.00248627
-0.000367877
0.00252108
-0.000341235
0.0025507
-0.000283018
0.00257505
-0.000234706
0.00259339
-0.000153067
0.00260535
-7.34836e-05
0.00260994
3.63891e-05
0.00260496
0.000220208
0.000222324
0.00259372
0.000625921
-0.000865365
-0.000584271
0.000670226
-0.000778605
0.000716543
-0.000733198
0.000764862
-0.000708531
0.000814982
-0.00069211
0.000867014
-0.000680011
0.000921067
-0.000674289
0.000977049
-0.000666793
0.00103516
-0.000662357
0.00109513
-0.000660349
0.00115717
-0.000657201
0.00122058
-0.000667309
0.00128658
-0.00064774
0.00135489
-0.000643523
0.00142557
-0.000630473
0.00149708
-0.000644185
0.00157079
-0.000627143
0.00164571
-0.000626391
0.00172183
-0.000619557
0.00179924
-0.000600068
0.00187642
-0.000608736
0.00195398
-0.000585856
0.00203068
-0.000580457
0.00210599
-0.000571305
0.00217954
-0.0005493
0.00224999
-0.000553888
0.00231739
-0.000527147
0.00238077
-0.00052087
0.00243993
-0.0004994
0.00249448
-0.000476171
0.00254416
-0.000454723
0.00258877
-0.000412483
0.00262813
-0.000380596
0.00266186
-0.000316747
0.00268976
-0.000262611
0.00271114