/*--------------------------------*- C++ -*----------------------------------*\
| =========                 |                                                 |
| \\      /  F ield         | OpenFOAM: The Open Source CFD Toolbox           |
|  \\    /   O peration     | Version:  5.x                                   |
|   \\  /    A nd           | Web:      www.OpenFOAM.org                      |
|    \\/     M anipulation  |                                                 |
\*---------------------------------------------------------------------------*/
FoamFile
{
    version     2.0;
    format      ascii;
    class       volVectorField;
    location    "400";
    object      U;
}
// * * * * * * * * * * * * * * * * * * * * * * * * * * * * * * * * * * * * * //

dimensions      [0 1 -1 0 0 0 0];

internalField   nonuniform List<vector> 
26000
(
(0.451906 1.83853e-19 2.95925)
(0.811452 -1.60454e-19 2.20832)
(0.92225 -2.82813e-22 1.24299)
(0.849632 1.30945e-19 0.525434)
(0.687614 4.67168e-20 0.124486)
(0.537544 5.82733e-21 -0.101421)
(0.484793 0 -0.230926)
(0.43999 0 -0.2794)
(0.406993 3.94714e-19 -0.289533)
(0.394937 -9.96888e-19 -0.268966)
(0.397963 2.06934e-18 -0.247944)
(0.40965 -1.48558e-18 -0.228366)
(0.419653 1.34994e-18 -0.217504)
(0.440869 2.7122e-18 -0.224836)
(0.462752 -3.32412e-18 -0.216875)
(0.466655 1.04302e-18 -0.216652)
(0.46255 5.8117e-18 -0.223709)
(0.464323 -1.21683e-17 -0.223809)
(0.460465 6.84173e-18 -0.21722)
(0.458267 6.15026e-18 -0.205639)
(0.457585 7.67952e-18 -0.193061)
(0.456347 3.50031e-18 -0.182122)
(0.457529 3.33146e-18 -0.172852)
(0.457137 -1.22335e-17 -0.165913)
(0.456261 2.90979e-18 -0.160813)
(0.454594 -8.31741e-18 -0.156784)
(0.450744 -5.27381e-18 -0.153526)
(0.446323 0 -0.150738)
(0.440434 -7.4768e-18 -0.148167)
(0.431667 2.42931e-18 -0.145607)
(0.420486 1.96305e-17 -0.142836)
(0.407321 0 -0.139945)
(0.393329 0 -0.136936)
(0.378193 -2.52067e-18 -0.133637)
(0.362795 2.03726e-17 -0.129967)
(0.346504 -1.81095e-17 -0.125607)
(0.328159 2.26039e-17 -0.120108)
(0.310442 2.04135e-17 -0.114316)
(0.284323 -6.60763e-19 -0.105781)
(0.268969 7.72643e-19 -0.101044)
(1.16386 -4.63603e-19 2.21567)
(1.47072 -1.44354e-19 2.40108)
(1.64452 0 2.24471)
(1.7062 -3.85684e-20 1.81464)
(1.6572 -9.41189e-21 1.28571)
(1.51204 0 0.806609)
(1.34132 -2.64672e-21 0.469897)
(1.1745 1.37502e-20 0.264331)
(1.03077 0 0.143864)
(0.924853 9.93956e-20 0.0816611)
(0.858247 -4.30823e-20 0.0505387)
(0.825585 -2.63511e-19 0.0335131)
(0.80614 2.74827e-19 0.0264408)
(0.804596 2.52783e-19 0.00591453)
(0.81421 -8.92068e-20 -0.0110798)
(0.818436 8.28386e-19 -0.0251852)
(0.814277 -1.03439e-18 -0.0400538)
(0.807343 9.02732e-19 -0.0564513)
(0.797389 -1.35878e-18 -0.0704044)
(0.782931 -9.34374e-19 -0.0818084)
(0.768306 -9.90267e-19 -0.0912286)
(0.753327 0 -0.0982686)
(0.738561 2.00816e-18 -0.10501)
(0.724921 2.0488e-18 -0.11103)
(0.711145 -9.90863e-19 -0.116749)
(0.698246 0 -0.122485)
(0.684521 1.93399e-20 -0.127234)
(0.670357 0 -0.131664)
(0.655773 1.03275e-18 -0.135369)
(0.640997 3.02686e-18 -0.138437)
(0.626561 -4.10229e-18 -0.140999)
(0.611893 -4.08983e-18 -0.143038)
(0.597286 0 -0.144968)
(0.582141 0 -0.14635)
(0.566828 -4.22328e-18 -0.147458)
(0.550861 8.45067e-18 -0.147699)
(0.5334 0 -0.147088)
(0.516378 -1.55223e-20 -0.146367)
(0.492839 -2.53664e-19 -0.143161)
(0.475141 2.96083e-19 -0.143378)
(1.04606 5.55453e-19 1.7781)
(1.32289 1.88864e-19 1.99037)
(1.60018 1.9126e-19 2.15803)
(1.84216 0 2.13546)
(2.00331 0 1.90634)
(2.04847 8.24915e-20 1.53304)
(1.9874 8.99025e-21 1.11438)
(1.84519 2.93914e-21 0.733001)
(1.66403 -9.86454e-21 0.443366)
(1.48493 -1.08566e-19 0.255117)
(1.33626 -2.72348e-20 0.147992)
(1.23415 -1.03951e-19 0.0900334)
(1.1588 3.0541e-19 0.0642725)
(1.11064 -7.59765e-19 0.0357752)
(1.08287 4.03382e-19 0.0133628)
(1.06443 -5.01766e-20 -0.00664726)
(1.04752 -4.6627e-19 -0.0243741)
(1.03033 3.49889e-20 -0.0441225)
(1.01287 3.75656e-19 -0.0634733)
(0.993527 8.24806e-19 -0.0811971)
(0.975098 -5.68146e-19 -0.0971647)
(0.956497 0 -0.109356)
(0.937921 -1.23984e-18 -0.120286)
(0.920494 1.92018e-18 -0.129581)
(0.902626 -1.25667e-18 -0.137702)
(0.88556 2.12214e-20 -0.145634)
(0.867449 -1.29895e-18 -0.152008)
(0.848719 2.63778e-18 -0.157944)
(0.829744 1.31749e-18 -0.162879)
(0.810654 -1.35098e-18 -0.167171)
(0.792112 0 -0.171019)
(0.773367 2.6596e-18 -0.174126)
(0.754873 -6.72639e-19 -0.177087)
(0.735939 6.52596e-19 -0.179255)
(0.716838 2.63608e-18 -0.181139)
(0.697415 -5.23254e-18 -0.1821)
(0.677553 5.29258e-18 -0.182431)
(0.658906 -5.29293e-18 -0.182584)
(0.634465 4.99931e-18 -0.179997)
(0.615667 0 -0.181652)
(1.05356 -4.94629e-19 1.56645)
(1.21227 3.538e-20 1.68431)
(1.41177 -3.49296e-19 1.83843)
(1.65378 1.26046e-19 1.96511)
(1.9047 -1.33379e-19 1.98485)
(2.11201 -3.40774e-20 1.85228)
(2.23435 -2.43296e-20 1.58509)
(2.24859 4.45456e-20 1.23521)
(2.16434 3.23708e-20 0.879649)
(2.01438 5.45562e-20 0.578205)
(1.84029 -3.12398e-20 0.359288)
(1.68585 6.96179e-20 0.220272)
(1.54943 1.83193e-19 0.141757)
(1.4429 -1.92639e-19 0.0863855)
(1.36705 -2.58602e-19 0.0484221)
(1.3177 3.12506e-19 0.0184189)
(1.28144 3.24345e-19 -0.00618213)
(1.25142 -3.6527e-19 -0.030896)
(1.22543 1.15485e-19 -0.05413)
(1.19976 -2.96953e-19 -0.0759662)
(1.17596 -4.34633e-19 -0.0961469)
(1.15231 8.20888e-19 -0.112379)
(1.12887 -4.46837e-19 -0.126884)
(1.10662 4.29198e-19 -0.139206)
(1.08415 0 -0.149926)
(1.06268 9.27789e-19 -0.160041)
(1.04102 -9.23978e-19 -0.168555)
(1.01939 7.23928e-21 -0.176493)
(0.99772 -1.9045e-18 -0.183321)
(0.975504 -1.15893e-20 -0.189339)
(0.953302 9.60225e-19 -0.194626)
(0.930419 4.87618e-19 -0.198932)
(0.907587 -4.83882e-19 -0.202855)
(0.884067 -4.86905e-19 -0.205834)
(0.860273 -9.73634e-19 -0.208353)
(0.836203 -4.79678e-18 -0.209879)
(0.811983 -3.38151e-18 -0.210827)
(0.789112 -4.04893e-18 -0.21154)
(0.760896 3.76707e-18 -0.209663)
(0.739431 4.10198e-18 -0.211796)
(1.09026 -9.83507e-21 1.40902)
(1.19774 2.04876e-20 1.49147)
(1.32 1.22334e-19 1.59468)
(1.48204 -2.38886e-19 1.71526)
(1.69061 7.75732e-20 1.81772)
(1.92512 0 1.84702)
(2.14705 -3.89029e-20 1.76618)
(2.30947 1.48218e-20 1.56482)
(2.37993 -2.86348e-21 1.27849)
(2.35253 -1.88631e-20 0.964036)
(2.24693 0 0.676126)
(2.10854 0 0.45415)
(1.95143 5.20255e-20 0.298059)
(1.80422 8.7817e-20 0.189343)
(1.68269 1.10182e-19 0.117615)
(1.59694 2.04616e-20 0.0679187)
(1.53389 -1.66439e-19 0.0309665)
(1.4846 -3.3579e-19 -0.00249028)
(1.44438 2.33338e-19 -0.0322761)
(1.40684 5.35437e-19 -0.0597545)
(1.37329 -6.03201e-19 -0.0848697)
(1.34122 4.89464e-19 -0.105767)
(1.31047 -8.14371e-19 -0.124417)
(1.28199 0 -0.140213)
(1.25393 0 -0.153896)
(1.2277 -7.2544e-19 -0.166405)
(1.2019 7.02164e-19 -0.17714)
(1.17656 -7.08962e-21 -0.187165)
(1.15155 -7.35579e-19 -0.195914)
(1.12616 -1.48127e-18 -0.203705)
(1.10099 0 -0.210623)
(1.07528 0 -0.216483)
(1.04966 3.81337e-19 -0.221766)
(1.02324 -3.72614e-19 -0.225999)
(0.996395 0 -0.229654)
(0.968866 3.39826e-18 -0.23227)
(0.940593 -3.76287e-19 -0.234162)
(0.913279 1.66066e-21 -0.235547)
(0.880271 2.85916e-18 -0.234371)
(0.854944 -3.28273e-18 -0.236816)
(1.1175 -1.53859e-20 1.29035)
(1.20119 2.82197e-20 1.35659)
(1.28918 -1.75109e-20 1.43074)
(1.39607 -1.15487e-20 1.51763)
(1.5376 1.246e-19 1.6135)
(1.7205 -5.13025e-20 1.69387)
(1.93573 5.61899e-20 1.72317)
(2.15277 -1.04083e-19 1.66452)
(2.33069 -9.11428e-20 1.50784)
(2.43454 0 1.27293)
(2.4498 0 1.00061)
(2.39526 -6.27164e-21 0.746678)
(2.2828 -1.13866e-19 0.528453)
(2.14312 1.67848e-19 0.357446)
(2.00199 -1.88172e-19 0.234475)
(1.88722 9.18904e-20 0.150878)
(1.79592 -2.20196e-19 0.0924395)
(1.72307 4.706e-19 0.0448337)
(1.66466 -4.64523e-19 0.0051224)
(1.61278 -4.31018e-20 -0.0303383)
(1.56819 0 -0.0619423)
(1.52703 6.51433e-19 -0.0886077)
(1.4884 -8.68291e-19 -0.112354)
(1.45302 -1.96955e-20 -0.132506)
(1.41872 1.12605e-18 -0.14997)
(1.38706 -5.74177e-19 -0.1656)
(1.35632 0 -0.179101)
(1.32648 1.20725e-18 -0.191539)
(1.29736 6.19105e-19 -0.202432)
(1.26818 6.21637e-19 -0.21215)
(1.23957 -6.06467e-19 -0.220797)
(1.21066 0 -0.228307)
(1.18203 0 -0.235077)
(1.15281 0 -0.240734)
(1.12336 0 -0.24569)
(1.09322 -2.47106e-18 -0.249557)
(1.06208 -2.49092e-18 -0.252611)
(1.03157 2.3136e-18 -0.255017)
(0.994513 -4.36441e-18 -0.25496)
(0.965438 -8.10322e-20 -0.25787)
(1.14336 1.49473e-19 1.19633)
(1.2094 -1.53271e-19 1.25148)
(1.27819 -1.07886e-19 1.31123)
(1.35714 1.08491e-19 1.37627)
(1.45521 -1.03154e-19 1.44908)
(1.5827 1.09937e-19 1.52499)
(1.7474 0 1.58814)
(1.94328 1.86996e-19 1.60918)
(2.14717 7.17462e-20 1.56152)
(2.3241 0 1.43383)
(2.44213 0 1.23671)
(2.48978 5.88559e-20 1.01311)
(2.46568 1.49975e-19 0.781555)
(2.38534 9.64891e-20 0.571707)
(2.2693 -3.06658e-19 0.399435)
(2.15314 1.86576e-19 0.274053)
(2.0474 0 0.184501)
(1.95644 -8.24134e-20 0.115451)
(1.88127 4.60024e-20 0.0610145)
(1.8152 -3.70708e-19 0.0143632)
(1.7592 4.04046e-19 -0.0259321)
(1.70836 0 -0.0600556)
(1.6611 -5.64652e-20 -0.0902095)
(1.61806 4.7344e-19 -0.115764)
(1.5769 -4.65947e-19 -0.137898)
(1.53936 0 -0.157297)
(1.50349 0 -0.174055)
(1.46904 5.13117e-19 -0.189323)
(1.43577 -5.11454e-19 -0.202747)
(1.40282 5.08857e-19 -0.214775)
(1.37074 -5.20077e-19 -0.225484)
(1.33851 -1.03854e-18 -0.234899)
(1.30676 -5.30448e-19 -0.243343)
(1.2746 5.17669e-19 -0.250584)
(1.24242 0 -0.256989)
(1.20974 2.10022e-18 -0.262253)
(1.17613 2.11682e-18 -0.266622)
(1.14309 2.2306e-18 -0.27021)
(1.10303 -2.07242e-18 -0.271551)
(1.07104 -2.22002e-18 -0.275155)
(1.16796 1.24959e-19 1.11859)
(1.22158 1.99162e-20 1.16494)
(1.27641 9.28902e-20 1.21548)
(1.33839 0 1.26891)
(1.41215 -5.36238e-20 1.32588)
(1.50358 -1.42306e-19 1.38663)
(1.62172 0 1.44759)
(1.77201 -1.8387e-19 1.49463)
(1.94988 -9.58339e-20 1.50673)
(2.13614 7.59018e-20 1.46268)
(2.30243 -1.54588e-19 1.35161)
(2.423 1.65882e-19 1.19282)
(2.4858 6.15607e-21 0.994616)
(2.48755 -1.46307e-19 0.786065)
(2.433 8.34605e-20 0.588819)
(2.34936 1.12857e-19 0.429556)
(2.25447 -2.28384e-19 0.306853)
(2.16155 -2.17805e-19 0.211334)
(2.07841 -2.06715e-20 0.13736)
(2.0027 5.75772e-19 0.0758923)
(1.9375 1.79128e-20 0.0244755)
(1.87836 -7.365e-19 -0.0188944)
(1.82356 4.02056e-19 -0.0568552)
(1.77366 0 -0.0889925)
(1.72614 5.10741e-20 -0.116855)
(1.68287 -4.32147e-19 -0.140951)
(1.64184 4.22905e-19 -0.161738)
(1.60279 0 -0.180412)
(1.56543 -2.23164e-19 -0.196814)
(1.52881 4.52629e-19 -0.211509)
(1.49342 5.79283e-21 -0.224581)
(1.45813 4.49026e-19 -0.236186)
(1.42356 9.06882e-19 -0.246584)
(1.3887 4.51284e-19 -0.255668)
(1.35394 -1.38436e-18 -0.263735)
(1.31882 1.36902e-18 -0.270577)
(1.2829 0 -0.276432)
(1.24764 -1.94278e-18 -0.281365)
(1.20521 1.75357e-18 -0.284309)
(1.17098 1.98908e-18 -0.288765)
(1.19048 -2.20286e-19 1.05232)
(1.23562 6.5855e-20 1.09159)
(1.2805 2.48486e-20 1.13475)
(1.33038 9.35394e-20 1.18056)
(1.38874 4.39902e-20 1.22836)
(1.45864 1.7926e-19 1.27798)
(1.54588 -1.78627e-19 1.32927)
(1.65676 1.28566e-19 1.37723)
(1.79495 7.98835e-20 1.41106)
(1.95548 -9.06103e-20 1.4137)
(2.12258 7.44812e-20 1.36811)
(2.27226 -2.27444e-19 1.27531)
(2.3901 2.30268e-19 1.13268)
(2.46223 -7.72721e-20 0.957819)
(2.47826 1.55039e-19 0.767013)
(2.44801 -1.83392e-19 0.594312)
(2.38742 0 0.447632)
(2.31241 2.41657e-19 0.327428)
(2.23553 -2.53547e-19 0.232233)
(2.15977 3.63552e-19 0.153556)
(2.09134 -6.18334e-19 0.0889782)
(2.02794 -9.55026e-20 0.0347826)
(1.96857 3.94347e-19 -0.0122453)
(1.91391 4.39168e-20 -0.0520782)
(1.8616 -4.2365e-20 -0.0866747)
(1.8137 2.33662e-20 -0.116338)
(1.76835 -3.8405e-19 -0.141909)
(1.72535 3.82033e-19 -0.164621)
(1.68441 2.00421e-19 -0.184538)
(1.64454 -3.90725e-19 -0.202357)
(1.60621 8.05168e-19 -0.218164)
(1.56823 -7.96774e-19 -0.232265)
(1.5312 -1.22119e-18 -0.244882)
(1.49407 8.00116e-19 -0.256048)
(1.45719 4.04645e-19 -0.26601)
(1.42002 9.9559e-23 -0.274648)
(1.38211 -1.63731e-18 -0.282182)
(1.34494 1.62196e-18 -0.288641)
(1.30061 3.02198e-18 -0.293375)
(1.26462 3.34682e-21 -0.298845)
(1.21082 -7.54415e-22 0.994712)
(1.24988 0 1.0283)
(1.2878 0 1.06528)
(1.32898 -8.31255e-20 1.10485)
(1.37641 0 1.1463)
(1.43225 -3.97838e-20 1.18885)
(1.50006 1.20165e-19 1.23241)
(1.58406 0 1.27507)
(1.68887 -8.4811e-20 1.31242)
(1.81601 1.54143e-19 1.33444)
(1.96021 -1.60461e-19 1.32729)
(2.10608 8.55548e-20 1.28383)
(2.24323 -6.76951e-20 1.19558)
(2.35703 0 1.06798)
(2.42936 0 0.906867)
(2.45353 7.71717e-20 0.742945)
(2.43805 -1.78825e-19 0.588408)
(2.39535 1.94783e-19 0.452241)
(2.33819 -2.29751e-19 0.338924)
(2.27347 2.37336e-19 0.24337)
(2.20988 -2.77499e-19 0.164969)
(2.14812 6.38239e-19 0.0991422)
(2.08856 -3.67336e-19 0.04231)
(2.03253 3.88923e-20 -0.00592112)
(1.9782 -2.50399e-21 -0.0479347)
(1.92774 -3.58964e-19 -0.0838542)
(1.87966 6.74049e-19 -0.114883)
(1.83392 9.79985e-21 -0.142229)
(1.79039 9.17865e-21 -0.166152)
(1.74811 1.85539e-19 -0.187503)
(1.70753 -1.07143e-18 -0.206411)
(1.6675 -3.53753e-21 -0.223332)
(1.62856 7.26879e-19 -0.238446)
(1.58969 -7.17925e-19 -0.251931)
(1.55119 7.39096e-19 -0.263998)
(1.51251 6.50525e-21 -0.274626)
(1.47314 1.10597e-18 -0.284027)
(1.43452 -1.27306e-18 -0.292194)
(1.3888 -2.79765e-18 -0.298889)
(1.35145 -9.48027e-20 -0.30555)
(1.22919 1.06594e-19 0.943851)
(1.26365 1.41302e-19 0.972866)
(1.29658 -1.42013e-19 1.00472)
(1.33153 -1.55405e-19 1.03894)
(1.37101 0 1.07508)
(1.41681 -7.34936e-20 1.11237)
(1.47153 3.19536e-21 1.15053)
(1.53785 0 1.18822)
(1.61917 1.56976e-19 1.22354)
(1.71831 -8.05236e-20 1.25116)
(1.8351 8.83828e-20 1.26245)
(1.96192 8.32019e-20 1.24917)
(2.09383 0 1.20226)
(2.22122 0 1.11975)
(2.32621 0 0.998131)
(2.39229 8.28845e-20 0.858599)
(2.41973 0 0.712336)
(2.41429 9.14395e-20 0.572524)
(2.38501 -2.96979e-19 0.448366)
(2.33982 -1.16049e-19 0.33936)
(2.28829 4.71304e-19 0.248237)
(2.23395 -1.1832e-19 0.17097)
(2.1789 4.05362e-19 0.104299)
(2.12532 -1.3116e-18 0.0475312)
(2.07219 6.30187e-19 -0.00211441)
(2.02176 7.43485e-20 -0.0446414)
(1.97308 0 -0.0815234)
(1.92632 -1.9403e-20 -0.113911)
(1.88156 7.16204e-19 -0.142237)
(1.838 -7.88662e-19 -0.167472)
(1.79612 4.88496e-19 -0.189784)
(1.75486 -3.20536e-19 -0.209782)
(1.71474 3.2877e-19 -0.227634)
(1.67479 6.56061e-19 -0.243649)
(1.63526 6.63727e-19 -0.25801)
(1.59564 -6.61068e-19 -0.270793)
(1.55538 1.68036e-19 -0.282214)
(1.51586 -1.6384e-19 -0.292242)
(1.46936 2.46767e-18 -0.301033)
(1.43107 1.38297e-18 -0.309062)
(1.24583 8.67581e-20 0.898374)
(1.27668 -2.96085e-19 0.92367)
(1.30586 2.76734e-19 0.951312)
(1.33629 2.48791e-19 0.980997)
(1.36998 6.97604e-20 1.01248)
(1.4084 -3.50935e-20 1.04525)
(1.45367 -1.40781e-19 1.07908)
(1.50772 0 1.11283)
(1.57291 -2.84521e-19 1.14533)
(1.65161 7.02554e-20 1.17344)
(1.74513 8.78797e-20 1.19226)
(1.85032 1.5894e-19 1.19504)
(1.96607 1.41908e-19 1.17486)
(2.08852 -1.55039e-19 1.12733)
(2.20448 0 1.04386)
(2.29511 -2.16226e-19 0.935391)
(2.35505 3.04681e-19 0.808951)
(2.38371 -2.4013e-19 0.677321)
(2.38443 7.92418e-20 0.551546)
(2.3634 -9.22334e-20 0.435013)
(2.32898 4.19166e-19 0.334185)
(2.28656 -9.82572e-19 0.24685)
(2.23979 5.71772e-19 0.170949)
(2.19183 1.21661e-19 0.10591)
(2.14268 -6.30045e-20 0.0487719)
(2.09473 -6.60594e-20 -0.000348504)
(2.04757 0 -0.0431587)
(2.0016 6.1686e-19 -0.0807634)
(1.95712 -6.30242e-19 -0.113697)
(1.91356 0 -0.14302)
(1.87144 1.46316e-19 -0.168949)
(1.82987 0 -0.192217)
(1.78936 3.00451e-21 -0.212979)
(1.74903 -2.94458e-19 -0.231674)
(1.70911 -9.083e-19 -0.248472)
(1.66913 2.98889e-19 -0.263536)
(1.62854 -1.37174e-18 -0.27709)
(1.58865 -1.05782e-18 -0.289094)
(1.542 -4.43802e-18 -0.300068)
(1.50323 -2.59492e-18 -0.309618)
(1.261 -1.58603e-19 0.857259)
(1.28891 -1.87643e-20 0.879507)
(1.31516 -1.18363e-19 0.903696)
(1.34219 -1.30418e-19 0.929593)
(1.37161 -3.2042e-20 0.95707)
(1.40459 2.25902e-19 0.985802)
(1.44285 1.92838e-19 1.01576)
(1.48793 0 1.04605)
(1.54158 -4.82301e-21 1.07581)
(1.60564 -1.39803e-19 1.10286)
(1.6815 -1.27088e-19 1.12428)
(1.76797 -1.30066e-19 1.13499)
(1.86574 1.4817e-19 1.13046)
(1.97484 1.50143e-19 1.10672)
(2.08744 -1.49083e-19 1.0541)
(2.18711 0 0.975859)
(2.26649 0 0.874485)
(2.32096 -3.00079e-19 0.759537)
(2.34863 6.27771e-19 0.640981)
(2.35246 -1.61815e-19 0.524158)
(2.33789 -5.5911e-19 0.418299)
(2.31052 1.85371e-19 0.323523)
(2.27491 0 0.239747)
(2.23497 -6.58443e-19 0.167116)
(2.19185 4.4162e-19 0.102897)
(2.14819 0 0.0474081)
(2.10418 4.88866e-19 -0.00122546)
(2.06045 -5.85261e-19 -0.0440263)
(2.01756 0 -0.081603)
(1.97514 0 -0.115085)
(1.93379 0 -0.144716)
(1.89279 0 -0.171343)
(1.85265 -2.76605e-19 -0.195119)
(1.81262 5.40437e-19 -0.216584)
(1.77292 -2.78441e-19 -0.235904)
(1.73313 8.26611e-19 -0.253323)
(1.69273 1.11463e-18 -0.269081)
(1.65295 -2.5231e-21 -0.283133)
(1.60669 2.06954e-18 -0.296322)
(1.56786 1.15551e-18 -0.307513)
(1.27488 7.2941e-20 0.819717)
(1.30036 1.50375e-19 0.839447)
(1.32424 -1.58589e-20 0.860789)
(1.34862 0 0.883544)
(1.37481 5.96746e-20 0.907635)
(1.40372 -3.00968e-19 0.932846)
(1.43674 -1.19731e-19 0.959282)
(1.4751 1.24005e-19 0.986323)
(1.5202 1.22812e-19 1.01338)
(1.5735 1.25972e-19 1.03879)
(1.63619 1.33773e-19 1.06068)
(1.70787 -2.32705e-22 1.07509)
(1.78975 8.14437e-21 1.07931)
(1.88373 2.05602e-20 1.07053)
(1.98601 2.73393e-19 1.04025)
(2.08421 0 0.987276)
(2.17146 -1.48444e-19 0.910828)
(2.24191 -1.32878e-19 0.816571)
(2.29023 2.93168e-19 0.71165)
(2.3162 -9.08558e-22 0.601369)
(2.32164 -1.71411e-19 0.495985)
(2.31094 -1.8075e-19 0.397599)
(2.28852 3.68136e-19 0.308283)
(2.25854 1.92419e-19 0.229356)
(2.22309 0 0.158787)
(2.1851 -2.14649e-19 0.0973229)
(2.14541 4.25781e-19 0.0430974)
(2.10497 3.96096e-19 -0.00477443)
(2.06457 -1.03019e-18 -0.0469425)
(2.02413 -4.04412e-20 -0.0845614)
(1.98431 4.73433e-19 -0.117905)
(1.94458 1.21453e-19 -0.147904)
(1.90543 2.52437e-19 -0.17472)
(1.86627 -1.49105e-18 -0.198981)
(1.8273 1.00731e-18 -0.220858)
(1.78817 -5.06183e-19 -0.24066)
(1.74838 2.58452e-19 -0.258647)
(1.70911 1.78433e-18 -0.274781)
(1.66369 0 -0.290173)
(1.62516 -1.06079e-18 -0.303081)
(1.28767 8.40133e-21 0.785125)
(1.31109 -7.82474e-21 0.802756)
(1.33301 -1.46768e-19 0.821738)
(1.35525 2.85298e-20 0.841887)
(1.37891 5.57285e-20 0.863144)
(1.40471 5.51127e-20 0.88535)
(1.43376 0 0.908679)
(1.46703 -1.14203e-19 0.932706)
(1.50567 1.18247e-19 0.957077)
(1.55085 -1.22168e-19 0.980539)
(1.60358 4.17711e-21 1.0018)
(1.66381 5.42223e-21 1.0177)
(1.73275 4.46254e-22 1.02664)
(1.81288 -2.63145e-19 1.0269)
(1.90281 0 1.01172)
(1.99395 2.68331e-19 0.977965)
(2.08099 -5.61577e-19 0.923137)
(2.15866 1.55326e-19 0.849726)
(2.2203 2.69544e-19 0.761679)
(2.26351 -3.06968e-19 0.66299)
(2.28683 0 0.563225)
(2.29268 -4.84869e-19 0.465585)
(2.28445 5.10163e-19 0.373863)
(2.2658 3.56126e-19 0.290655)
(2.23936 -3.59841e-19 0.214982)
(2.20826 -3.80607e-19 0.148269)
(2.1739 1.97826e-19 0.0888799)
(2.13759 -2.97823e-19 0.0361716)
(2.10039 -3.14749e-19 -0.0104687)
(2.06249 4.43874e-19 -0.0521686)
(2.02469 0 -0.0891987)
(1.98667 -1.09569e-19 -0.122547)
(1.94895 4.53882e-19 -0.152395)
(1.91106 -4.4935e-19 -0.179436)
(1.8732 -2.28616e-19 -0.203861)
(1.83507 3.90318e-21 -0.226037)
(1.79623 -2.34152e-19 -0.246242)
(1.75778 -1.87917e-18 -0.264456)
(1.7135 1.71492e-18 -0.282006)
(1.67555 -9.24558e-19 -0.296675)
(1.2995 5.51104e-20 0.752989)
(1.32115 7.29591e-21 0.768855)
(1.34141 2.68266e-20 0.785862)
(1.36188 -2.67107e-20 0.80384)
(1.38351 0 0.822731)
(1.40686 0 0.842403)
(1.43285 0 0.863054)
(1.46223 0 0.884382)
(1.49591 -1.07207e-19 0.906198)
(1.53488 2.27554e-19 0.927566)
(1.57997 -2.29168e-19 0.947594)
(1.63129 5.21714e-22 0.963718)
(1.68992 -1.0683e-22 0.975017)
(1.75834 1.28201e-19 0.980527)
(1.83641 2.46572e-19 0.975146)
(1.91836 -1.36431e-19 0.955137)
(2.00053 2.63491e-19 0.917494)
(2.07903 1.40059e-19 0.862669)
(2.14735 4.01301e-19 0.791929)
(2.20215 -2.93145e-19 0.707557)
(2.23973 0 0.617287)
(2.26043 1.448e-19 0.524458)
(2.26614 1.60393e-19 0.433782)
(2.25945 2.97558e-21 0.348856)
(2.24299 -3.30172e-19 0.269846)
(2.21978 3.46672e-19 0.199009)
(2.19166 1.75534e-19 0.135165)
(2.16026 0 0.0780542)
(2.12689 0 0.027194)
(2.09205 0 -0.0184487)
(2.05668 -9.86772e-20 -0.0591015)
(2.02068 0 -0.0957695)
(1.98464 -5.13004e-20 -0.128627)
(1.94825 0 -0.158427)
(1.91171 -2.14531e-19 -0.185374)
(1.87482 4.23606e-19 -0.209891)
(1.83715 4.35713e-19 -0.232281)
(1.79971 8.66105e-19 -0.25255)
(1.75679 -1.63521e-18 -0.272191)
(1.71962 8.94631e-19 -0.288635)
(1.31049 -5.86232e-20 0.722904)
(1.3306 -1.08916e-19 0.737275)
(1.34944 1.02878e-19 0.752619)
(1.36842 0 0.768774)
(1.38836 0 0.785684)
(1.40974 0 0.803228)
(1.43329 -1.00559e-19 0.821602)
(1.45964 1.0271e-19 0.84058)
(1.48949 -2.37052e-22 0.860069)
(1.52364 -1.10607e-19 0.879367)
(1.5628 -1.13817e-19 0.897863)
(1.60715 -1.1991e-19 0.913467)
(1.65759 -3.42765e-19 0.925689)
(1.71641 1.26298e-19 0.934069)
(1.78404 2.46606e-19 0.934808)
(1.85662 1.25024e-19 0.924229)
(1.93182 -1.22155e-19 0.899468)
(2.00716 -1.25356e-19 0.859926)
(2.07707 0 0.805037)
(2.13824 3.88902e-19 0.735578)
(2.18584 -2.81579e-19 0.657023)
(2.2186 2.88367e-19 0.572139)
(2.23691 -2.98712e-19 0.485717)
(2.24194 0 0.401834)
(2.23584 0 0.321634)
(2.22123 -8.00575e-19 0.248179)
(2.20011 4.86135e-19 0.180901)
(2.17434 -1.68912e-19 0.120056)
(2.14543 3.45495e-19 0.0653982)
(2.11416 6.67779e-21 0.0160755)
(2.08162 -6.27832e-19 -0.0280484)
(2.04794 3.60766e-19 -0.0679519)
(2.01381 3.4803e-20 -0.10378)
(1.97906 0 -0.136312)
(1.94398 1.11287e-21 -0.165758)
(1.90843 0 -0.192584)
(1.87205 -1.97659e-19 -0.217118)
(1.83575 6.04508e-19 -0.239401)
(1.7943 -9.57703e-20 -0.261057)
(1.75801 9.40924e-19 -0.279266)
(1.32075 -1.0999e-19 0.694545)
(1.33949 7.66855e-20 0.707638)
(1.35709 2.43928e-20 0.721568)
(1.37479 0 0.736182)
(1.3933 -4.65702e-20 0.751425)
(1.41305 -4.68908e-20 0.767178)
(1.43463 1.88219e-19 0.783627)
(1.45855 -9.73377e-20 0.800589)
(1.48538 -1.96655e-19 0.818025)
(1.51576 2.04812e-19 0.835396)
(1.55027 3.13189e-19 0.85228)
(1.58912 3.23158e-19 0.866965)
(1.63305 -3.34901e-19 0.879244)
(1.68407 2.22841e-19 0.88899)
(1.74288 -4.60029e-19 0.893376)
(1.80683 0 0.889049)
(1.87452 1.42988e-21 0.873549)
(1.94462 -2.55411e-19 0.845878)
(2.01273 -2.48741e-19 0.804432)
(2.07608 -1.71165e-21 0.748945)
(2.12965 0 0.682754)
(2.17122 -5.32134e-19 0.607716)
(2.19994 -1.38397e-20 0.528059)
(2.21563 0 0.447778)
(2.21966 0 0.368656)
(2.21392 2.90725e-19 0.294347)
(2.20032 4.55168e-19 0.224943)
(2.18078 -4.60094e-19 0.161278)
(2.1569 0 0.10344)
(2.12971 -3.24148e-19 0.0508453)
(2.10043 6.58141e-19 0.00351204)
(2.0694 -3.31241e-19 -0.0394631)
(2.03743 5.3659e-20 -0.0781645)
(2.0045 0 -0.113374)
(1.97098 1.80968e-19 -0.145286)
(1.93683 -7.18518e-19 -0.174393)
(1.90178 3.69418e-19 -0.201033)
(1.86668 -1.48058e-18 -0.225291)
(1.82675 0 -0.248885)
(1.79142 6.07148e-21 -0.268834)
(1.33035 1.16082e-19 0.667642)
(1.34788 8.44001e-20 0.679633)
(1.36437 -9.19617e-20 0.692352)
(1.38095 1.3405e-19 0.705654)
(1.39824 -4.0722e-22 0.719481)
(1.4166 1.33118e-19 0.73372)
(1.43654 -1.79185e-19 0.748541)
(1.45848 2.20454e-22 0.763787)
(1.48288 9.24377e-20 0.779446)
(1.51025 -1.92132e-19 0.795088)
(1.54108 -9.45497e-20 0.810419)
(1.57555 4.11802e-19 0.824019)
(1.61428 -1.08084e-19 0.835864)
(1.65901 2.12525e-19 0.846049)
(1.71048 2.15351e-19 0.852455)
(1.76687 -2.35004e-19 0.85213)
(1.82735 0 0.843073)
(1.89143 -2.34616e-19 0.824252)
(1.95577 2.48565e-19 0.793598)
(2.01833 2.37564e-19 0.750277)
(2.07451 0 0.695901)
(2.12167 2.47153e-19 0.631395)
(2.15824 -2.63028e-19 0.560086)
(2.1829 2.63629e-19 0.485442)
(2.19618 0 0.409492)
(2.1991 -5.51996e-19 0.33616)
(2.19321 8.39816e-19 0.26612)
(2.18029 -2.89526e-19 0.200757)
(2.16191 0 0.14055)
(2.13928 5.98327e-19 0.0852522)
(2.11368 -1.06189e-18 0.0350943)
(2.08567 4.56001e-19 -0.0106928)
(2.05614 2.73812e-19 -0.0520999)
(2.02524 0 -0.0898773)
(1.99343 -3.29706e-19 -0.124188)
(1.96077 6.60125e-19 -0.155534)
(1.92708 -1.67635e-19 -0.184247)
(1.8932 1.19869e-18 -0.210443)
(1.85479 -8.24329e-20 -0.235907)
(1.82045 8.90488e-20 -0.257559)
(1.33937 0 0.641975)
(1.3558 -1.13806e-19 0.653006)
(1.37131 1.08847e-19 0.664679)
(1.38689 -4.25075e-20 0.676853)
(1.40311 4.21782e-20 0.68947)
(1.42027 -8.43747e-20 0.70242)
(1.43882 1.86205e-22 0.715858)
(1.4591 2.60377e-19 0.729642)
(1.48149 1.76512e-19 0.743776)
(1.50643 -9.17033e-20 0.757905)
(1.53429 -1.82891e-19 0.771811)
(1.56523 1.96436e-19 0.784305)
(1.59977 1.96329e-19 0.795473)
(1.6394 -4.09127e-19 0.805552)
(1.68483 2.16756e-19 0.81294)
(1.73476 4.39152e-19 0.815075)
(1.78874 -2.25723e-19 0.810381)
(1.84678 0 0.797953)
(1.90643 0 0.775626)
(1.96633 2.39745e-19 0.742347)
(2.02258 0 0.698502)
(2.07258 4.80295e-19 0.644251)
(2.11442 -5.02165e-19 0.581941)
(2.14603 7.43819e-19 0.514267)
(2.16722 -5.0928e-19 0.443172)
(2.1781 -2.63377e-19 0.372502)
(2.17972 5.3125e-19 0.303347)
(2.17356 2.66508e-19 0.237533)
(2.16099 -8.15016e-19 0.175922)
(2.14328 0 0.118641)
(2.12175 -4.22898e-19 0.0661723)
(2.09711 -1.4958e-19 0.0179365)
(2.07033 2.86055e-19 -0.025927)
(2.04172 2.93634e-19 -0.0661016)
(2.01181 -7.60291e-20 -0.102697)
(1.98076 3.09083e-19 -0.136205)
(1.94852 -6.27451e-19 -0.166938)
(1.91587 -6.31722e-19 -0.19503)
(1.87897 1.14257e-18 -0.222308)
(1.84564 7.73925e-20 -0.245622)
(1.34785 0 0.617362)
(1.36329 -8.65069e-20 0.627553)
(1.3779 0 0.638312)
(1.39258 8.1005e-20 0.649507)
(1.40785 -8.03354e-20 0.66108)
(1.42396 -4.88032e-22 0.672924)
(1.4413 -8.12123e-20 0.685178)
(1.46017 8.32707e-20 0.697715)
(1.48088 -1.68004e-19 0.710541)
(1.50379 0 0.723356)
(1.52921 -3.52714e-19 0.735995)
(1.55728 5.55325e-19 0.747441)
(1.58842 -3.09083e-22 0.757844)
(1.62389 -1.9544e-19 0.767525)
(1.66436 3.93746e-21 0.775255)
(1.70884 -2.05677e-19 0.778825)
(1.75712 -2.14218e-19 0.777011)
(1.80951 4.29773e-19 0.769093)
(1.86423 -1.39334e-20 0.753007)
(1.92049 -6.7748e-19 0.727705)
(1.9751 0 0.692785)
(2.02576 6.95591e-19 0.647876)
(2.07057 -2.37521e-19 0.59445)
(2.10708 -4.72687e-19 0.534367)
(2.13455 4.8345e-19 0.469263)
(2.15233 2.40134e-19 0.402625)
(2.1609 7.6585e-21 0.335751)
(2.16131 0 0.270741)
(2.15465 -2.586e-19 0.208774)
(2.14211 -4.00466e-21 0.150342)
(2.12495 -2.65656e-19 0.0961912)
(2.104 7.96122e-19 0.0459733)
(2.08027 -5.40226e-19 -1.16061e-05)
(2.0542 -6.91177e-20 -0.0423434)
(2.02641 -2.04199e-19 -0.0810547)
(1.99715 1.40027e-19 -0.116605)
(1.96646 2.90642e-19 -0.149275)
(1.93513 5.90633e-19 -0.179207)
(1.89973 -1.12788e-18 -0.208239)
(1.86744 0 -0.23317)
(1.35586 -1.08599e-20 0.593658)
(1.37037 9.24219e-20 0.603104)
(1.38416 -7.89776e-20 0.613058)
(1.39803 -1.15656e-19 0.623397)
(1.41244 3.85846e-20 0.634061)
(1.42761 1.49632e-22 0.644946)
(1.44389 4.85174e-22 0.656179)
(1.46153 -1.58831e-19 0.667641)
(1.4808 1.61613e-19 0.679343)
(1.50199 0 0.691022)
(1.52538 1.7896e-21 0.702547)
(1.55106 -1.74473e-19 0.713037)
(1.57939 -1.77932e-19 0.722674)
(1.61144 1.82955e-19 0.731825)
(1.6478 -3.73768e-19 0.739527)
(1.68772 3.99131e-19 0.743874)
(1.7311 5.95203e-19 0.743919)
(1.77842 -4.19613e-19 0.739129)
(1.82837 0 0.727627)
(1.88057 0 0.708485)
(1.93254 0 0.680862)
(1.98232 -6.53766e-19 0.644061)
(2.02825 2.35337e-19 0.598873)
(2.06777 -4.49434e-19 0.546394)
(2.09983 4.59996e-19 0.487858)
(2.12322 4.61484e-19 0.426206)
(2.13789 -6.96561e-19 0.362756)
(2.14441 0 0.299698)
(2.14349 0 0.23842)
(2.13618 2.44663e-19 0.179721)
(2.12358 2.48428e-19 0.124599)
(2.10656 -3.98237e-21 0.0729522)
(2.08615 0 0.0252613)
(2.06287 6.37697e-20 -0.0189179)
(2.03742 -2.71904e-19 -0.0595193)
(2.01013 3.96373e-19 -0.0969475)
(1.98115 0 -0.131435)
(1.95126 -5.46472e-19 -0.163118)
(1.9174 0 -0.193832)
(1.88617 1.15262e-18 -0.220328)
(1.36342 0 0.570747)
(1.37709 1.95111e-20 0.579525)
(1.39012 -1.9009e-20 0.588765)
(1.40324 0 0.598345)
(1.41685 0 0.608209)
(1.43117 -1.48093e-19 0.618255)
(1.4465 0 0.628598)
(1.46306 3.03648e-19 0.639129)
(1.48107 -1.53946e-19 0.649856)
(1.50079 1.5761e-19 0.66055)
(1.52244 -4.86356e-19 0.6711)
(1.5461 1.65397e-19 0.680734)
(1.57207 -1.71943e-19 0.689648)
(1.60128 0 0.698227)
(1.63422 -3.56174e-19 0.705702)
(1.6703 1.93182e-19 0.710413)
(1.7095 0 0.711633)
(1.75235 0 0.708988)
(1.7979 0 0.700814)
(1.84604 -4.02878e-19 0.686346)
(1.89485 1.09757e-20 0.664533)
(1.94277 4.2759e-19 0.634529)
(1.98843 -4.23139e-19 0.59664)
(2.02938 -1.88697e-21 0.551342)
(2.06446 0 0.499463)
(2.09211 4.38196e-19 0.443324)
(2.11182 -4.44402e-19 0.384119)
(2.12375 0 0.32396)
(2.1282 4.51636e-19 0.264325)
(2.12597 -6.8203e-19 0.206235)
(2.11798 -2.29314e-19 0.150885)
(2.10504 4.6746e-19 0.0984215)
(2.08814 -2.3988e-19 0.0495044)
(2.06788 0 0.00385018)
(2.04499 -4.31728e-19 -0.03836)
(2.01986 8.06877e-19 -0.0774542)
(1.99276 2.81154e-21 -0.113601)
(1.96442 -2.54948e-19 -0.146917)
(1.9322 9.92057e-19 -0.179214)
(1.90209 -2.14223e-18 -0.207212)
(1.37056 0 0.548535)
(1.38345 -1.12011e-19 0.556712)
(1.39577 1.08239e-19 0.565308)
(1.4082 -7.06672e-20 0.574211)
(1.42109 7.089e-20 0.583364)
(1.43463 1.41797e-19 0.592668)
(1.44909 -7.14411e-20 0.602228)
(1.46467 2.1902e-19 0.611942)
(1.48156 -2.96386e-19 0.621818)
(1.49999 4.56163e-19 0.631652)
(1.52013 -1.2668e-21 0.641347)
(1.54206 1.59941e-19 0.650219)
(1.56602 -1.64118e-19 0.658469)
(1.59282 0 0.666483)
(1.62288 1.72569e-19 0.673632)
(1.65572 -1.74962e-19 0.67846)
(1.69135 3.67115e-19 0.680405)
(1.73031 0 0.679221)
(1.77189 0 0.673449)
(1.81618 3.93081e-19 0.662492)
(1.86168 -3.94965e-19 0.645232)
(1.90718 9.60724e-21 0.62079)
(1.95161 4.13333e-19 0.589161)
(1.99278 8.14133e-19 0.550358)
(2.02953 -4.18226e-19 0.504861)
(2.06013 0 0.454382)
(2.08379 4.18303e-19 0.399908)
(2.10029 -4.274e-19 0.343346)
(2.10954 4.3337e-19 0.286149)
(2.11209 0 0.229465)
(2.10858 4.38066e-19 0.174618)
(2.09973 -2.1379e-19 0.121971)
(2.08647 -4.53356e-19 0.0723502)
(2.06938 4.50637e-19 0.0256415)
(2.04922 -5.7292e-20 -0.0178489)
(2.02645 -4.33608e-20 -0.058353)
(2.00138 1.19738e-19 -0.0959622)
(1.97475 0 -0.130761)
(1.94428 -1.85607e-18 -0.164519)
(1.91538 -2.99193e-21 -0.193932)
(1.37732 0 0.526956)
(1.38948 -5.36951e-23 0.534583)
(1.40114 3.44927e-20 0.542596)
(1.41292 -3.41133e-20 0.550887)
(1.42513 1.36033e-19 0.5594)
(1.43795 0 0.56804)
(1.45162 -1.38149e-19 0.576904)
(1.46631 -1.4073e-19 0.585895)
(1.48219 -1.43074e-19 0.595021)
(1.49946 7.0548e-22 0.604096)
(1.51828 -1.49409e-19 0.613038)