# Force coefficients
# liftDir    : (0.000000e+00 0.000000e+00 1.000000e+00)
# dragDir    : (1.000000e+00 0.000000e+00 0.000000e+00)
# pitchAxis  : (0.000000e+00 1.000000e+00 0.000000e+00)
# magUInf    : 1.500000e+00
# lRef       : 1.000000e+00
# Aref       : 1.000000e-01
# CofR       : (2.500000e-01 0.000000e+00 0.000000e+00)
# Time       	Cm           	Cd           	Cl           	Cl(f)        	Cl(r)        
1            	-3.251794e+01	2.849782e+02	6.489348e+02	2.919495e+02	3.569853e+02
2            	-1.629041e+01	1.932411e+02	4.803404e+02	2.238798e+02	2.564606e+02
3            	8.368526e+00	-1.830220e+01	-3.042595e+01	-6.844451e+00	-2.358150e+01
4            	1.306121e+01	-1.205297e+02	-3.023657e+02	-1.381217e+02	-1.642441e+02
5            	2.988660e+00	-8.202466e+01	-2.128393e+02	-1.034310e+02	-1.094083e+02
6            	-5.143142e+00	5.085399e-01	3.245478e+00	-3.520403e+00	6.765881e+00
7            	-5.378840e+00	4.682006e+01	1.224081e+02	5.582521e+01	6.658289e+01
8            	-1.483663e+00	3.854284e+01	9.673029e+01	4.688148e+01	4.984881e+01
9            	1.267420e+00	8.551190e+00	1.653492e+01	9.534882e+00	7.000042e+00
10           	1.688930e+00	-1.108603e+01	-3.208633e+01	-1.435424e+01	-1.773210e+01
11           	1.115610e+00	-1.371395e+01	-3.435427e+01	-1.606152e+01	-1.829274e+01
12           	5.955227e-01	-7.320089e+00	-1.416607e+01	-6.487511e+00	-7.678556e+00
13           	-1.939464e-03	3.852393e-01	3.987223e+00	1.991672e+00	1.995551e+00
14           	-6.029677e-01	5.172525e+00	1.257482e+01	5.684442e+00	6.890377e+00
15           	-7.962401e-01	6.098740e+00	1.278301e+01	5.595263e+00	7.187743e+00
16           	-4.030341e-01	3.756021e+00	7.514001e+00	3.353966e+00	4.160035e+00
17           	2.227735e-01	1.266454e-01	1.897371e-01	3.176420e-01	-1.279049e-01
18           	5.814119e-01	-2.209270e+00	-4.579579e+00	-1.708378e+00	-2.871201e+00
19           	5.217563e-01	-2.052088e+00	-4.305664e+00	-1.631075e+00	-2.674588e+00
20           	1.999393e-01	-1.348102e-01	-5.938954e-02	1.702445e-01	-2.296340e-01
21           	-1.071419e-01	1.744581e+00	3.896689e+00	1.841203e+00	2.055486e+00
22           	-2.216825e-01	2.266315e+00	5.039679e+00	2.298157e+00	2.741522e+00
23           	-1.464598e-01	1.469211e+00	3.100113e+00	1.403597e+00	1.696516e+00
24           	1.593690e-02	3.742082e-01	5.591057e-01	2.954897e-01	2.636159e-01
25           	1.717408e-01	-1.647031e-01	-4.155754e-01	-3.604684e-02	-3.795285e-01
26           	2.539315e-01	2.403024e-02	2.649872e-01	3.864251e-01	-1.214379e-01
27           	2.223370e-01	5.238714e-01	1.495405e+00	9.700396e-01	5.253657e-01
28           	1.187133e-01	8.610056e-01	2.154185e+00	1.195806e+00	9.583793e-01
29           	2.800401e-02	8.683665e-01	1.971393e+00	1.013700e+00	9.576923e-01
30           	2.537087e-03	6.646982e-01	1.397576e+00	7.013251e-01	6.962510e-01
31           	4.125742e-02	4.731727e-01	9.939973e-01	5.382561e-01	4.557412e-01
32           	1.040635e-01	4.163161e-01	9.764364e-01	5.922817e-01	3.841547e-01
33           	1.497345e-01	4.614210e-01	1.191942e+00	7.457054e-01	4.462363e-01
34           	1.546410e-01	5.471003e-01	1.397782e+00	8.535319e-01	5.442498e-01
35           	1.308811e-01	5.860517e-01	1.433842e+00	8.478023e-01	5.860400e-01
36           	1.024077e-01	5.732187e-01	1.347275e+00	7.760450e-01	5.712295e-01
37           	8.828191e-02	5.389487e-01	1.249269e+00	7.129164e-01	5.363526e-01
38           	9.328695e-02	5.132152e-01	1.207834e+00	6.972039e-01	5.106300e-01
39           	1.086612e-01	5.013652e-01	1.218778e+00	7.180503e-01	5.007280e-01
40           	1.251362e-01	5.020091e-01	1.251269e+00	7.507707e-01	5.004983e-01
41           	1.322756e-01	5.030776e-01	1.255039e+00	7.597952e-01	4.952439e-01
42           	1.293120e-01	5.045158e-01	1.241831e+00	7.502274e-01	4.916035e-01
43           	1.222074e-01	5.028220e-01	1.223935e+00	7.341751e-01	4.897602e-01
44           	1.168912e-01	5.013569e-01	1.217700e+00	7.257411e-01	4.919586e-01
45           	1.166162e-01	4.998452e-01	1.218517e+00	7.258749e-01	4.926424e-01
46           	1.208140e-01	4.943656e-01	1.221180e+00	7.314042e-01	4.897762e-01
47           	1.267943e-01	4.914975e-01	1.221759e+00	7.376740e-01	4.840853e-01
48           	1.308170e-01	4.865061e-01	1.211291e+00	7.364627e-01	4.748287e-01
49           	1.319399e-01	4.813722e-01	1.198837e+00	7.313582e-01	4.674784e-01
50           	1.310933e-01	4.775304e-01	1.190095e+00	7.261406e-01	4.639540e-01
51           	1.297483e-01	4.765077e-01	1.185384e+00	7.224405e-01	4.629438e-01
52           	1.295334e-01	4.754668e-01	1.185062e+00	7.220641e-01	4.629974e-01
53           	1.309687e-01	4.731469e-01	1.186176e+00	7.240566e-01	4.621193e-01
54           	1.328136e-01	4.715573e-01	1.185441e+00	7.255340e-01	4.599068e-01
55           	1.347177e-01	4.691534e-01	1.182010e+00	7.257224e-01	4.562871e-01
56           	1.360414e-01	4.659410e-01	1.177033e+00	7.245579e-01	4.524752e-01
57           	1.368013e-01	4.632785e-01	1.171194e+00	7.223985e-01	4.487959e-01
58           	1.372451e-01	4.608299e-01	1.166478e+00	7.204839e-01	4.459937e-01
59           	1.375620e-01	4.588714e-01	1.163565e+00	7.193447e-01	4.442208e-01
60           	1.380931e-01	4.573165e-01	1.162011e+00	7.190985e-01	4.429123e-01
61           	1.388501e-01	4.558387e-01	1.160690e+00	7.191953e-01	4.414951e-01
62           	1.396735e-01	4.544974e-01	1.158989e+00	7.191679e-01	4.398209e-01
63           	1.406793e-01	4.523958e-01	1.156715e+00	7.190367e-01	4.376781e-01
64           	1.414942e-01	4.508361e-01	1.154192e+00	7.185902e-01	4.356018e-01
65           	1.423280e-01	4.485314e-01	1.150636e+00	7.176460e-01	4.329900e-01
66           	1.430014e-01	4.464678e-01	1.147301e+00	7.166519e-01	4.306492e-01
67           	1.434663e-01	4.450304e-01	1.144838e+00	7.158855e-01	4.289528e-01
68           	1.439523e-01	4.434650e-01	1.142606e+00	7.152553e-01	4.273507e-01
69           	1.446193e-01	4.414648e-01	1.140473e+00	7.148556e-01	4.256171e-01
70           	1.453420e-01	4.400990e-01	1.138965e+00	7.148246e-01	4.241406e-01
71           	1.459870e-01	4.390352e-01	1.137746e+00	7.148597e-01	4.228858e-01
72           	1.465810e-01	4.378463e-01	1.136344e+00	7.147531e-01	4.215911e-01
73           	1.471270e-01	4.366943e-01	1.134781e+00	7.145174e-01	4.202634e-01
74           	1.477038e-01	4.353186e-01	1.132917e+00	7.141622e-01	4.187545e-01
75           	1.483728e-01	4.335575e-01	1.130745e+00	7.137455e-01	4.169999e-01
76           	1.489585e-01	4.323618e-01	1.128913e+00	7.134147e-01	4.154978e-01
77           	1.494804e-01	4.311120e-01	1.127203e+00	7.130818e-01	4.141209e-01
78           	1.501457e-01	4.293197e-01	1.125316e+00	7.128035e-01	4.125120e-01
79           	1.506761e-01	4.282070e-01	1.123929e+00	7.126407e-01	4.112885e-01
80           	1.511763e-01	4.272486e-01	1.122704e+00	7.125284e-01	4.101759e-01
81           	1.517228e-01	4.261620e-01	1.121377e+00	7.124114e-01	4.089659e-01
82           	1.522585e-01	4.250480e-01	1.120131e+00	7.123240e-01	4.078070e-01
83           	1.527790e-01	4.240141e-01	1.119012e+00	7.122852e-01	4.067272e-01
84           	1.533500e-01	4.228787e-01	1.117995e+00	7.123473e-01	4.056474e-01
85           	1.537818e-01	4.220024e-01	1.116879e+00	7.122214e-01	4.046578e-01
86           	1.542827e-01	4.209823e-01	1.115667e+00	7.121160e-01	4.035506e-01
87           	1.547926e-01	4.200934e-01	1.114537e+00	7.120612e-01	4.024759e-01
88           	1.553906e-01	4.188319e-01	1.113287e+00	7.120340e-01	4.012528e-01
89           	1.560446e-01	4.176255e-01	1.112070e+00	7.120796e-01	3.999903e-01
90           	1.564368e-01	4.168300e-01	1.111060e+00	7.119670e-01	3.990935e-01
91           	1.568873e-01	4.159189e-01	1.110047e+00	7.119105e-01	3.981360e-01
92           	1.574933e-01	4.148278e-01	1.109048e+00	7.120174e-01	3.970309e-01
93           	1.579950e-01	4.139782e-01	1.108234e+00	7.121123e-01	3.961222e-01
94           	1.583419e-01	4.133370e-01	1.107559e+00	7.121212e-01	3.954373e-01
95           	1.587728e-01	4.126963e-01	1.106923e+00	7.122341e-01	3.946885e-01
96           	1.594374e-01	4.114841e-01	1.106142e+00	7.125082e-01	3.936335e-01
97           	1.599506e-01	4.107464e-01	1.105423e+00	7.126619e-01	3.927607e-01
98           	1.604431e-01	4.100179e-01	1.104668e+00	7.127771e-01	3.918909e-01
99           	1.609606e-01	4.091362e-01	1.103865e+00	7.128932e-01	3.909720e-01
100          	1.614576e-01	4.082780e-01	1.103118e+00	7.130164e-01	3.901012e-01
101          	1.619314e-01	4.075215e-01	1.102475e+00	7.131687e-01	3.893059e-01
102          	1.624036e-01	4.068082e-01	1.101909e+00	7.133583e-01	3.885511e-01
103          	1.628851e-01	4.060838e-01	1.101378e+00	7.135742e-01	3.878039e-01
104          	1.634462e-01	4.053483e-01	1.100922e+00	7.139073e-01	3.870148e-01
105          	1.638540e-01	4.046948e-01	1.100431e+00	7.140695e-01	3.863615e-01
106          	1.643140e-01	4.040396e-01	1.100029e+00	7.143286e-01	3.857007e-01
107          	1.647804e-01	4.035182e-01	1.099687e+00	7.146239e-01	3.850631e-01
108          	1.653957e-01	4.026500e-01	1.099401e+00	7.150963e-01	3.843048e-01
109          	1.658146e-01	4.020506e-01	1.099050e+00	7.153396e-01	3.837105e-01
110          	1.662566e-01	4.015109e-01	1.098756e+00	7.156346e-01	3.831215e-01
111          	1.667491e-01	4.008801e-01	1.098471e+00	7.159848e-01	3.824867e-01
112          	1.671899e-01	4.003811e-01	1.098192e+00	7.162857e-01	3.819059e-01
113          	1.677715e-01	3.995710e-01	1.097974e+00	7.167583e-01	3.812153e-01
114          	1.681905e-01	3.990484e-01	1.097765e+00	7.170732e-01	3.806922e-01
115          	1.686451e-01	3.985799e-01	1.097654e+00	7.174720e-01	3.801818e-01
116          	1.692252e-01	3.980429e-01	1.097705e+00	7.180779e-01	3.796275e-01
117          	1.696360e-01	3.974932e-01	1.097530e+00	7.184011e-01	3.791292e-01
118          	1.700770e-01	3.969744e-01	1.097416e+00	7.187851e-01	3.786312e-01
119          	1.706527e-01	3.964751e-01	1.097508e+00	7.194068e-01	3.781014e-01
120          	1.710724e-01	3.959881e-01	1.097417e+00	7.197807e-01	3.776359e-01
121          	1.715352e-01	3.954962e-01	1.097408e+00	7.202392e-01	3.771688e-01
122          	1.720048e-01	3.951374e-01	1.097460e+00	7.207348e-01	3.767253e-01
123          	1.725647e-01	3.945591e-01	1.097642e+00	7.213857e-01	3.762563e-01
124          	1.730438e-01	3.942046e-01	1.097807e+00	7.219473e-01	3.758596e-01
125          	1.736430e-01	3.936696e-01	1.098218e+00	7.227522e-01	3.754662e-01
126          	1.740403e-01	3.932669e-01	1.098251e+00	7.231658e-01	3.750852e-01
127          	1.744837e-01	3.928678e-01	1.098327e+00	7.236473e-01	3.746798e-01
128          	1.749438e-01	3.925366e-01	1.098444e+00	7.241656e-01	3.742780e-01
129          	1.754889e-01	3.919956e-01	1.098712e+00	7.248448e-01	3.738670e-01
130          	1.759642e-01	3.916964e-01	1.098997e+00	7.254626e-01	3.735341e-01
131          	1.765672e-01	3.912545e-01	1.099641e+00	7.263877e-01	3.732532e-01
132          	1.769738e-01	3.909163e-01	1.099856e+00	7.269019e-01	3.729544e-01
133          	1.774049e-01	3.906985e-01	1.100117e+00	7.274634e-01	3.726537e-01
134          	1.779358e-01	3.902537e-01	1.100597e+00	7.282340e-01	3.723625e-01
135          	1.784680e-01	3.899525e-01	1.101232e+00	7.290840e-01	3.721479e-01
136          	1.788952e-01	3.897819e-01	1.101687e+00	7.297385e-01	3.719481e-01
137          	1.793865e-01	3.893898e-01	1.102230e+00	7.305014e-01	3.717283e-01
138          	1.798408e-01	3.891363e-01	1.102677e+00	7.311795e-01	3.714978e-01
139          	1.803730e-01	3.887758e-01	1.103338e+00	7.320418e-01	3.712957e-01
140          	1.808269e-01	3.886095e-01	1.103920e+00	7.327870e-01	3.711333e-01
141          	1.813285e-01	3.883255e-01	1.104710e+00	7.336834e-01	3.710264e-01
142          	1.817635e-01	3.881824e-01	1.105370e+00	7.344486e-01	3.709215e-01
143          	1.822614e-01	3.879128e-01	1.106228e+00	7.353753e-01	3.708525e-01
144          	1.826975e-01	3.877853e-01	1.106934e+00	7.361644e-01	3.707694e-01
145          	1.831913e-01	3.875298e-01	1.107828e+00	7.371051e-01	3.707226e-01
146          	1.836218e-01	3.874140e-01	1.108571e+00	7.379074e-01	3.706638e-01
147          	1.841103e-01	3.871840e-01	1.109537e+00	7.388790e-01	3.706584e-01
148          	1.845379e-01	3.871018e-01	1.110373e+00	7.397244e-01	3.706486e-01
149          	1.850191e-01	3.869166e-01	1.111454e+00	7.407461e-01	3.707079e-01
150          	1.854969e-01	3.868426e-01	1.112605e+00	7.417993e-01	3.708055e-01
151          	1.858838e-01	3.868096e-01	1.113460e+00	7.426139e-01	3.708463e-01
152          	1.863292e-01	3.866003e-01	1.114496e+00	7.435774e-01	3.709189e-01
153          	1.868059e-01	3.865131e-01	1.115670e+00	7.446411e-01	3.710292e-01
154          	1.872632e-01	3.864989e-01	1.116857e+00	7.456919e-01	3.711654e-01
155          	1.876358e-01	3.864580e-01	1.117746e+00	7.465088e-01	3.712372e-01
156          	1.880850e-01	3.862722e-01	1.118922e+00	7.475460e-01	3.713761e-01
157          	1.885724e-01	3.862659e-01	1.120324e+00	7.487345e-01	3.715897e-01
158          	1.890800e-01	3.863873e-01	1.122065e+00	7.501126e-01	3.719527e-01
159          	1.893890e-01	3.862816e-01	1.122823e+00	7.508004e-01	3.720224e-01
160          	1.898151e-01	3.862361e-01	1.123932e+00	7.517810e-01	3.721509e-01
161          	1.902790e-01	3.861965e-01	1.125259e+00	7.529086e-01	3.723505e-01
162          	1.907822e-01	3.862820e-01	1.127102e+00	7.543331e-01	3.727686e-01
163          	1.910941e-01	3.862238e-01	1.128027e+00	7.551076e-01	3.729194e-01
164          	1.915787e-01	3.863454e-01	1.129756e+00	7.564565e-01	3.732992e-01
165          	1.919772e-01	3.863619e-01	1.130990e+00	7.574720e-01	3.735176e-01
166          	1.923944e-01	3.863634e-01	1.132368e+00	7.585784e-01	3.737897e-01
167          	1.928196e-01	3.864145e-01	1.133922e+00	7.597804e-01	3.741412e-01
168          	1.932850e-01	3.865733e-01	1.135942e+00	7.612562e-01	3.746861e-01
169          	1.935835e-01	3.865315e-01	1.136927e+00	7.620472e-01	3.748802e-01
170          	1.940107e-01	3.866299e-01	1.138422e+00	7.632218e-01	3.752003e-01
171          	1.944589e-01	3.867191e-01	1.140113e+00	7.645156e-01	3.755978e-01
172          	1.949299e-01	3.869261e-01	1.142319e+00	7.660895e-01	3.762297e-01
173          	1.952078e-01	3.869173e-01	1.143369e+00	7.668924e-01	3.764767e-01
174          	1.956553e-01	3.871157e-01	1.145309e+00	7.683096e-01	3.769991e-01
175          	1.960684e-01	3.872523e-01	1.147067e+00	7.696018e-01	3.774651e-01
176          	1.964436e-01	3.873550e-01	1.148666e+00	7.707766e-01	3.778894e-01
177          	1.967416e-01	3.873141e-01	1.149755e+00	7.716192e-01	3.781360e-01
178          	1.971789e-01	3.874982e-01	1.151636e+00	7.729967e-01	3.786390e-01
179          	1.976635e-01	3.878306e-01	1.154257e+00	7.747921e-01	3.794651e-01
180          	1.980226e-01	3.880736e-01	1.156196e+00	7.761205e-01	3.800753e-01
181          	1.982814e-01	3.880381e-01	1.157178e+00	7.768703e-01	3.803076e-01
182          	1.986965e-01	3.881641e-01	1.158891e+00	7.781419e-01	3.807489e-01
183          	1.991193e-01	3.883576e-01	1.160944e+00	7.795912e-01	3.813526e-01
184          	1.995435e-01	3.887236e-01	1.163594e+00	7.813406e-01	3.822535e-01
185          	1.998672e-01	3.889906e-01	1.165513e+00	7.826237e-01	3.828894e-01
186          	2.001284e-01	3.890696e-01	1.166571e+00	7.834138e-01	3.831570e-01
187          	2.005207e-01	3.890401e-01	1.168239e+00	7.846402e-01	3.835989e-01
188          	2.009614e-01	3.892889e-01	1.170522e+00	7.862226e-01	3.842998e-01
189          	2.013876e-01	3.897977e-01	1.173453e+00	7.881141e-01	3.853388e-01
190          	2.016914e-01	3.901217e-01	1.175486e+00	7.894346e-01	3.860518e-01
191          	2.019284e-01	3.901776e-01	1.176518e+00	7.901875e-01	3.863308e-01
192          	2.023010e-01	3.901359e-01	1.178178e+00	7.913902e-01	3.867882e-01
193          	2.027290e-01	3.904073e-01	1.180520e+00	7.929888e-01	3.875307e-01
194          	2.031060e-01	3.908652e-01	1.183081e+00	7.946467e-01	3.884347e-01
195          	2.034660e-01	3.912911e-01	1.185796e+00	7.963640e-01	3.894320e-01
196          	2.037382e-01	3.914448e-01	1.187325e+00	7.974008e-01	3.899244e-01
197          	2.040692e-01	3.915281e-01	1.188925e+00	7.985316e-01	3.903931e-01
198          	2.044338e-01	3.917047e-01	1.190907e+00	7.998871e-01	3.910196e-01
199          	2.047833e-01	3.920172e-01	1.193199e+00	8.013826e-01	3.918160e-01
200          	2.051527e-01	3.924563e-01	1.196018e+00	8.031618e-01	3.928564e-01
201          	2.054686e-01	3.927831e-01	1.198178e+00	8.045577e-01	3.936206e-01
202          	2.057642e-01	3.929367e-01	1.199713e+00	8.056206e-01	3.940922e-01
203          	2.061197e-01	3.930741e-01	1.201579e+00	8.069091e-01	3.946696e-01
204          	2.064824e-01	3.933399e-01	1.203870e+00	8.084175e-01	3.954528e-01
205          	2.068519e-01	3.938043e-01	1.206830e+00	8.102669e-01	3.965631e-01
206          	2.071482e-01	3.941785e-01	1.209097e+00	8.116969e-01	3.974005e-01
207          	2.074297e-01	3.943426e-01	1.210655e+00	8.127569e-01	3.978976e-01
208          	2.077819e-01	3.944726e-01	1.212531e+00	8.140474e-01	3.984836e-01
209          	2.081464e-01	3.947393e-01	1.214852e+00	8.155724e-01	3.992796e-01
210          	2.084797e-01	3.951314e-01	1.217378e+00	8.171685e-01	4.002091e-01
211          	2.088290e-01	3.955817e-01	1.220254e+00	8.189557e-01	4.012978e-01
212          	2.091066e-01	3.958374e-01	1.222062e+00	8.201377e-01	4.019245e-01
213          	2.094326e-01	3.959969e-01	1.223897e+00	8.213809e-01	4.025158e-01
214          	2.097840e-01	3.962122e-01	1.226044e+00	8.228059e-01	4.032380e-01
215          	2.101198e-01	3.965457e-01	1.228449e+00	8.243443e-01	4.041047e-01
216          	2.104379e-01	3.969147e-01	1.230884e+00	8.258799e-01	4.050041e-01
217          	2.107598e-01	3.972373e-01	1.233214e+00	8.273667e-01	4.058471e-01
218          	2.110927e-01	3.975200e-01	1.235464e+00	8.288248e-01	4.066394e-01
219          	2.114268e-01	3.977989e-01	1.237691e+00	8.302724e-01	4.074189e-01
220          	2.117534e-01	3.980851e-01	1.239916e+00	8.317112e-01	4.082045e-01
221          	2.120741e-01	3.983739e-01	1.242147e+00	8.331475e-01	4.089992e-01
222          	2.123964e-01	3.986658e-01	1.244405e+00	8.345990e-01	4.098062e-01
223          	2.127238e-01	3.989651e-01	1.246702e+00	8.360748e-01	4.106272e-01
224          	2.130542e-01	3.992706e-01	1.249019e+00	8.375639e-01	4.114554e-01
225          	2.133875e-01	3.995791e-01	1.251338e+00	8.390565e-01	4.122815e-01
226          	2.137226e-01	3.998898e-01	1.253650e+00	8.405478e-01	4.131026e-01
227          	2.140556e-01	4.002004e-01	1.255952e+00	8.420318e-01	4.139206e-01
228          	2.143841e-01	4.005071e-01	1.258243e+00	8.435054e-01	4.147373e-01
229          	2.147093e-01	4.008080e-01	1.260525e+00	8.449720e-01	4.155533e-01
230          	2.150344e-01	4.011058e-01	1.262807e+00	8.464381e-01	4.163692e-01
231          	2.153612e-01	4.014040e-01	1.265093e+00	8.479078e-01	4.171853e-01
232          	2.156895e-01	4.017036e-01	1.267382e+00	8.493806e-01	4.180015e-01
233          	2.160179e-01	4.020037e-01	1.269671e+00	8.508536e-01	4.188177e-01
234          	2.163451e-01	4.023029e-01	1.271958e+00	8.523241e-01	4.196340e-01
235          	2.166703e-01	4.026005e-01	1.274241e+00	8.537906e-01	4.204501e-01
236          	2.169939e-01	4.028957e-01	1.276518e+00	8.552529e-01	4.212651e-01
237          	2.173169e-01	4.031884e-01	1.278790e+00	8.567119e-01	4.220780e-01
238          	2.176405e-01	4.034791e-01	1.281059e+00	8.581698e-01	4.228888e-01
239          	2.179651e-01	4.037693e-01	1.283327e+00	8.596284e-01	4.236982e-01
240          	2.182906e-01	4.040598e-01	1.285597e+00	8.610889e-01	4.245077e-01
241          	2.186163e-01	4.043512e-01	1.287869e+00	8.625506e-01	4.253180e-01
242          	2.189417e-01	4.046429e-01	1.290141e+00	8.640122e-01	4.261288e-01
243          	2.192665e-01	4.049337e-01	1.292411e+00	8.654720e-01	4.269390e-01
244          	2.195911e-01	4.052228e-01	1.294677e+00	8.669297e-01	4.277475e-01
245          	2.199158e-01	4.055099e-01	1.296939e+00	8.683853e-01	4.285538e-01
246          	2.202408e-01	4.057954e-01	1.299198e+00	8.698398e-01	4.293583e-01
247          	2.205661e-01	4.060799e-01	1.301455e+00	8.712937e-01	4.301615e-01
248          	2.208914e-01	4.063637e-01	1.303711e+00	8.727471e-01	4.309642e-01
249          	2.212166e-01	4.066471e-01	1.305966e+00	8.741996e-01	4.317665e-01
250          	2.215412e-01	4.069297e-01	1.308219e+00	8.756507e-01	4.325682e-01
251          	2.218655e-01	4.072114e-01	1.310469e+00	8.770998e-01	4.333688e-01
252          	2.221894e-01	4.074918e-01	1.312715e+00	8.785469e-01	4.341680e-01
253          	2.225132e-01	4.077708e-01	1.314958e+00	8.799921e-01	4.349656e-01
254          	2.228370e-01	4.080486e-01	1.317197e+00	8.814355e-01	4.357616e-01
255          	2.231922e-01	4.084004e-01	1.319874e+00	8.831293e-01	4.367448e-01
256          	2.234963e-01	4.086940e-01	1.322022e+00	8.845074e-01	4.375148e-01
257          	2.237989e-01	4.089077e-01	1.323935e+00	8.857664e-01	4.381685e-01
258          	2.240957e-01	4.090556e-01	1.325631e+00	8.869114e-01	4.387200e-01
259          	2.244340e-01	4.092739e-01	1.327814e+00	8.883408e-01	4.394728e-01
260          	2.248090e-01	4.097075e-01	1.330870e+00	8.902439e-01	4.406259e-01
261          	2.251095e-01	4.101000e-01	1.333299e+00	8.917590e-01	4.415400e-01
262          	2.253380e-01	4.101138e-01	1.334478e+00	8.925770e-01	4.419010e-01
263          	2.257139e-01	4.103900e-01	1.336733e+00	8.940804e-01	4.426526e-01
264          	2.260816e-01	4.107400e-01	1.339315e+00	8.957392e-01	4.435760e-01
265          	2.264350e-01	4.111953e-01	1.342318e+00	8.975941e-01	4.447241e-01
266          	2.267158e-01	4.114982e-01	1.344437e+00	8.989342e-01	4.455026e-01
267          	2.269397e-01	4.114464e-01	1.345461e+00	8.996701e-01	4.457907e-01
268          	2.273076e-01	4.116410e-01	1.347521e+00	9.010683e-01	4.464532e-01
269          	2.277051e-01	4.120748e-01	1.350574e+00	9.029920e-01	4.475819e-01
270          	2.279978e-01	4.124702e-01	1.353009e+00	9.045024e-01	4.485069e-01
271          	2.282083e-01	4.124846e-01	1.354164e+00	9.052902e-01	4.488736e-01
272          	2.286078e-01	4.128416e-01	1.356859e+00	9.070375e-01	4.498219e-01
273          	2.289527e-01	4.131803e-01	1.359317e+00	9.086111e-01	4.507056e-01
274          	2.292440e-01	4.134485e-01	1.361387e+00	9.099377e-01	4.514497e-01
275          	2.295397e-01	4.136300e-01	1.363285e+00	9.111820e-01	4.521025e-01
276          	2.298540e-01	4.138012e-01	1.365251e+00	9.124797e-01	4.527717e-01
277          	2.301693e-01	4.140287e-01	1.367360e+00	9.138494e-01	4.535108e-01
278          	2.304793e-01	4.143016e-01	1.369548e+00	9.152533e-01	4.542946e-01
279          	2.307898e-01	4.145739e-01	1.371725e+00	9.166523e-01	4.550728e-01
280          	2.311029e-01	4.148230e-01	1.373848e+00	9.180270e-01	4.558211e-01
281          	2.314159e-01	4.150554e-01	1.375925e+00	9.193784e-01	4.565466e-01
282          	2.317268e-01	4.152817e-01	1.377981e+00	9.207176e-01	4.572639e-01
283          	2.320357e-01	4.155063e-01	1.380033e+00	9.220525e-01	4.579810e-01
284          	2.323436e-01	4.157308e-01	1.382085e+00	9.233863e-01	4.586991e-01
285          	2.326512e-01	4.159570e-01	1.384138e+00	9.247204e-01	4.594180e-01
286          	2.329589e-01	4.161851e-01	1.386191e+00	9.260543e-01	4.601365e-01
287          	2.332662e-01	4.164131e-01	1.388237e+00	9.273844e-01	4.608521e-01
288          	2.335723e-01	4.166381e-01	1.390269e+00	9.287069e-01	4.615623e-01
289          	2.338772e-01	4.168586e-01	1.392287e+00	9.300205e-01	4.622661e-01
290          	2.341814e-01	4.170751e-01	1.394292e+00	9.313273e-01	4.629646e-01
291          	2.344850e-01	4.172889e-01	1.396289e+00	9.326297e-01	4.636596e-01
292          	2.347882e-01	4.175013e-01	1.398280e+00	9.339283e-01	4.643518e-01
293          	2.350907e-01	4.177128e-01	1.400264e+00	9.352225e-01	4.650411e-01
294          	2.353922e-01	4.179231e-01	1.402238e+00	9.365114e-01	4.657269e-01
295          	2.356928e-01	4.181315e-01	1.404203e+00	9.377943e-01	4.664088e-01
296          	2.359923e-01	4.183377e-01	1.406158e+00	9.390711e-01	4.670865e-01
297          	2.362910e-01	4.185412e-01	1.408101e+00	9.403417e-01	4.677598e-01
298          	2.365891e-01	4.187422e-01	1.410035e+00	9.416067e-01	4.684285e-01
299          	2.368868e-01	4.189409e-01	1.411959e+00	9.428663e-01	4.690928e-01
300          	2.371130e-01	4.189501e-01	1.413188e+00	9.437068e-01	4.694808e-01
301          	2.374607e-01	4.192425e-01	1.415418e+00	9.451699e-01	4.702485e-01
302          	2.377903e-01	4.195521e-01	1.417741e+00	9.466609e-01	4.710803e-01
303          	2.381172e-01	4.198661e-01	1.420226e+00	9.482303e-01	4.719960e-01
304          	2.383075e-01	4.198443e-01	1.421245e+00	9.489297e-01	4.723148e-01
305          	2.386553e-01	4.200590e-01	1.423320e+00	9.503152e-01	4.730047e-01
306          	2.388838e-01	4.200478e-01	1.424515e+00	9.511412e-01	4.733735e-01
307          	2.392043e-01	4.202875e-01	1.426548e+00	9.524783e-01	4.740696e-01
308          	2.395114e-01	4.205254e-01	1.428651e+00	9.538368e-01	4.748140e-01
309          	2.398353e-01	4.207897e-01	1.431013e+00	9.553417e-01	4.756710e-01
310          	2.400226e-01	4.207588e-01	1.432012e+00	9.560284e-01	4.759833e-01
311          	2.403730e-01	4.210027e-01	1.434153e+00	9.574497e-01	4.767037e-01
312          	2.405959e-01	4.209939e-01	1.435320e+00	9.582558e-01	4.770641e-01
313          	2.409148e-01	4.212418e-01	1.437328e+00	9.595786e-01	4.777490e-01
314          	2.412531e-01	4.215416e-01	1.439764e+00	9.611354e-01	4.786291e-01
315          	2.414349e-01	4.215223e-01	1.440806e+00	9.618382e-01	4.789683e-01
316          	2.416876e-01	4.215645e-01	1.442204e+00	9.627898e-01	4.794147e-01
317          	2.420390e-01	4.218666e-01	1.444434e+00	9.642561e-01	4.801781e-01
318          	2.423426e-01	4.221255e-01	1.446511e+00	9.655980e-01	4.809129e-01
319          	2.425585e-01	4.221173e-01	1.447794e+00	9.664553e-01	4.813383e-01
320          	2.428572e-01	4.223406e-01	1.449679e+00	9.676965e-01	4.819822e-01
321          	2.430908e-01	4.223516e-01	1.451013e+00	9.685973e-01	4.824156e-01
322          	2.433946e-01	4.225937e-01	1.452969e+00	9.698792e-01	4.830900e-01
323          	2.437042e-01	4.228341e-01	1.455105e+00	9.712568e-01	4.838484e-01
324          	2.438731e-01	4.227791e-01	1.455990e+00	9.718678e-01	4.841217e-01
325          	2.441163e-01	4.227877e-01	1.457242e+00	9.727373e-01	4.845047e-01
326          	2.444592e-01	4.230667e-01	1.459355e+00	9.741369e-01	4.852185e-01
327          	2.447535e-01	4.233317e-01	1.461397e+00	9.754519e-01	4.859448e-01
328          	2.449591e-01	4.233337e-01	1.462665e+00	9.762917e-01	4.863735e-01
329          	2.452439e-01	4.235476e-01	1.464499e+00	9.774934e-01	4.870057e-01
330          	2.454651e-01	4.235432e-01	1.465752e+00	9.783411e-01	4.874110e-01
331          	2.457547e-01	4.237535e-01	1.467570e+00	9.795399e-01	4.880305e-01
332          	2.459705e-01	4.237559e-01	1.468814e+00	9.803775e-01	4.884366e-01
333          	2.462588e-01	4.239857e-01	1.470669e+00	9.815931e-01	4.890754e-01
334          	2.464765e-01	4.239977e-01	1.471935e+00	9.824442e-01	4.894913e-01
335          	2.467680e-01	4.242327e-01	1.473811e+00	9.836733e-01	4.901373e-01
336          	2.469853e-01	4.242443e-01	1.475068e+00	9.845193e-01	4.905487e-01
337          	2.472723e-01	4.244686e-01	1.476892e+00	9.857182e-01	4.911735e-01
338          	2.474843e-01	4.244715e-01	1.478102e+00	9.865351e-01	4.915665e-01
339          	2.477640e-01	4.246833e-01	1.479868e+00	9.876981e-01	4.921700e-01
340          	2.479716e-01	4.246850e-01	1.481058e+00	9.885005e-01	4.925573e-01
341          	2.482481e-01	4.248972e-01	1.482817e+00	9.896565e-01	4.931602e-01
342          	2.484545e-01	4.249021e-01	1.484005e+00	9.904568e-01	4.935478e-01
343          	2.487303e-01	4.251135e-01	1.485753e+00	9.916067e-01	4.941461e-01
344          	2.489357e-01	4.251177e-01	1.486926e+00	9.923987e-01	4.945273e-01
345          	2.492088e-01	4.253242e-01	1.488646e+00	9.935317e-01	4.951140e-01
346          	2.494109e-01	4.253268e-01	1.489799e+00	9.943107e-01	4.954888e-01
347          	2.496784e-01	4.255294e-01	1.491491e+00	9.954241e-01	4.960673e-01
348          	2.498761e-01	4.255314e-01	1.492628e+00	9.961902e-01	4.964380e-01
349          	2.501390e-01	4.257306e-01	1.494297e+00	9.972876e-01	4.970096e-01
350          	2.503344e-01	4.257329e-01	1.495421e+00	9.980452e-01	4.973763e-01
351          	2.505954e-01	4.259293e-01	1.497071e+00	9.991310e-01	4.979403e-01
352          	2.507894e-01	4.259324e-01	1.498184e+00	9.998814e-01	4.983025e-01
353          	2.510477e-01	4.261268e-01	1.499813e+00	1.000954e+00	4.988590e-01
354          	2.512384e-01	4.261297e-01	1.500910e+00	1.001693e+00	4.992165e-01
355          	2.514910e-01	4.263207e-01	1.502514e+00	1.002748e+00	4.997658e-01
356          	2.517173e-01	4.264560e-01	1.503952e+00	1.003693e+00	5.002589e-01
357          	2.518877e-01	4.264127e-01	1.504893e+00	1.004334e+00	5.005589e-01
358          	2.521306e-01	4.265625e-01	1.506369e+00	1.005315e+00	5.010538e-01
359          	2.523552e-01	4.266999e-01	1.507794e+00	1.006252e+00	5.015416e-01
360          	2.525238e-01	4.266747e-01	1.508763e+00	1.006906e+00	5.018580e-01
361          	2.527619e-01	4.268472e-01	1.510279e+00	1.007901e+00	5.023776e-01
362          	2.529804e-01	4.269896e-01	1.511700e+00	1.008830e+00	5.028697e-01
363          	2.531440e-01	4.269596e-01	1.512638e+00	1.009463e+00	5.031750e-01
364          	2.533764e-01	4.271199e-01	1.514098e+00	1.010426e+00	5.036727e-01
365          	2.535898e-01	4.272556e-01	1.515474e+00	1.011327e+00	5.041472e-01
366          	2.537488e-01	4.272262e-01	1.516386e+00	1.011942e+00	5.044441e-01
367          	2.539757e-01	4.273892e-01	1.517828e+00	1.012890e+00	5.049382e-01
368          	2.541837e-01	4.275298e-01	1.519192e+00	1.013780e+00	5.054123e-01
369          	2.543379e-01	4.275059e-01	1.520092e+00	1.014384e+00	5.057082e-01
370          	2.545582e-01	4.276711e-01	1.521512e+00	1.015314e+00	5.061980e-01
371          	2.547599e-01	4.278114e-01	1.522848e+00	1.016184e+00	5.066640e-01
372          	2.549093e-01	4.277887e-01	1.523725e+00	1.016772e+00	5.069529e-01
373          	2.551230e-01	4.279492e-01	1.525106e+00	1.017676e+00	5.074301e-01