/*--------------------------------*- C++ -*----------------------------------*\
| =========                 |                                                 |
| \\      /  F ield         | OpenFOAM: The Open Source CFD Toolbox           |
|  \\    /   O peration     | Version:  5.x                                   |
|   \\  /    A nd           | Web:      www.OpenFOAM.org                      |
|    \\/     M anipulation  |                                                 |
\*---------------------------------------------------------------------------*/
FoamFile
{
    version     2.0;
    format      ascii;
    class       volScalarField;
    location    "100";
    object      nut;
}
// * * * * * * * * * * * * * * * * * * * * * * * * * * * * * * * * * * * * * //

dimensions      [0 2 -1 0 0 0 0];

internalField   nonuniform List<scalar> 
26000
(
0.000793761
0.000519013
0.000336113
0.000230161
0.000164038
0.000118677
8.49168e-05
5.65006e-05
3.63286e-05
2.4334e-05
1.72578e-05
1.34875e-05
1.0252e-05
8.30043e-06
7.94215e-06
7.67737e-06
7.5564e-06
7.96828e-06
8.42961e-06
9.11916e-06
9.98255e-06
1.1571e-05
1.63521e-05
2.86647e-05
4.29617e-05
5.45707e-05
6.40398e-05
7.27491e-05
8.0896e-05
8.78982e-05
9.37525e-05
9.89991e-05
0.000104042
0.000108888
0.000113667
0.000117967
0.000121443
0.000124318
0.000125931
0.000128428
0.00372649
0.00273077
0.00190519
0.00134892
0.000987612
0.000748627
0.000578215
0.00046257
0.0003775
0.000320032
0.000280092
0.00025449
0.000233267
0.000212261
0.000206713
0.000203534
0.000201023
0.000203618
0.000206024
0.000209843
0.000213598
0.000218485
0.000226003
0.000233833
0.000245078
0.000257042
0.000268126
0.000280208
0.000293057
0.000302733
0.000308981
0.000314119
0.000319742
0.000325902
0.000333204
0.000339518
0.000343057
0.000345158
0.00034498
0.000348761
0.00715053
0.00590175
0.00449865
0.00330599
0.00242661
0.00181441
0.00138164
0.00108761
0.000880002
0.000741039
0.000647322
0.000585329
0.000542401
0.000505407
0.000488914
0.000476676
0.00046593
0.000460682
0.00045572
0.000447011
0.000442733
0.000441647
0.000442535
0.000448229
0.000457809
0.00047114
0.000481828
0.000493119
0.000507336
0.000525146
0.000544545
0.000565135
0.000587839
0.000612445
0.000639906
0.00066488
0.000683192
0.000700111
0.000713082
0.000731182
0.011056
0.00967411
0.00790839
0.00621069
0.00474785
0.00361299
0.00276324
0.00216027
0.0017284
0.00143309
0.00123106
0.00109558
0.000998859
0.000912926
0.000850314
0.000801652
0.000770213
0.000747369
0.000734356
0.000728584
0.000730256
0.000736768
0.000746054
0.000760657
0.000780975
0.000805924
0.000821364
0.000835763
0.000853884
0.000875603
0.000898572
0.000921658
0.000947984
0.000976144
0.00100782
0.0010419
0.00107918
0.00111979
0.00115446
0.0011936
0.0152756
0.0138555
0.0119053
0.0098364
0.00790329
0.00622511
0.00485456
0.00381205
0.00303367
0.00248116
0.00209394
0.00182958
0.00163918
0.00147227
0.00134044
0.00125246
0.00119853
0.00116144
0.00113867
0.0011257
0.0011233
0.00112628
0.00112937
0.00113873
0.00115579
0.00118084
0.00120668
0.0012354
0.00126901
0.00130653
0.00134205
0.00137473
0.00141061
0.00144611
0.00148409
0.00152365
0.00156723
0.00161516
0.00166836
0.00173399
0.019714
0.0183154
0.0163099
0.0140349
0.0117424
0.00960956
0.00771841
0.00616015
0.00492583
0.00400373
0.00333402
0.0028655
0.00252513
0.00223304
0.00201443
0.00186558
0.00176992
0.00170211
0.00165556
0.00161802
0.00159597
0.00159035
0.00159474
0.00160772
0.00162887
0.00165895
0.00168694
0.00171872
0.00175687
0.00179832
0.00184431
0.00189367
0.00194808
0.00199817
0.0020491
0.0020992
0.00215206
0.00220807
0.00226758
0.00235084
0.0242973
0.0229646
0.0209831
0.018634
0.0161299
0.0136552
0.0113146
0.0092496
0.00750306
0.00611917
0.00506594
0.004303
0.003736
0.00326683
0.00291527
0.00267161
0.00250575
0.00238122
0.00229144
0.00222662
0.00218651
0.00216861
0.00216469
0.00217068
0.00218437
0.00221055
0.00224485
0.0022857
0.00233439
0.00238214
0.00243424
0.00249032
0.00255226
0.00261727
0.00268784
0.00275458
0.00282213
0.00289071
0.00295911
0.00305886
0.0289571
0.0277184
0.0258137
0.0234829
0.0208965
0.0182144
0.0155443
0.0130357
0.010792
0.008905
0.0073915
0.00624727
0.00537093
0.00465016
0.00410312
0.0037169
0.00344562
0.00323539
0.00308707
0.00297993
0.00290804
0.00286503
0.00283794
0.00283203
0.0028411
0.00286468
0.00289784
0.00293786
0.00298812
0.00304378
0.0031075
0.00317376
0.00324384
0.00331687
0.00339697
0.00348099
0.00356863
0.00365486
0.00373732
0.00385657
0.0336334
0.0325041
0.0307098
0.0284596
0.0258879
0.0231219
0.0202502
0.0174227
0.014747
0.0123726
0.0103679
0.0087786
0.00751744
0.00646586
0.00564907
0.0050603
0.00463732
0.00430876
0.00407339
0.00390078
0.00377699
0.00369258
0.00363801
0.00361287
0.00360732
0.00361771
0.00364463
0.0036847
0.00373769
0.00379426
0.0038612
0.00393471
0.00401704
0.00410062
0.00418993
0.00428397
0.00438669
0.00449451
0.00459654
0.00473927
0.0382746
0.0372612
0.0355952
0.0334661
0.0309759
0.0282229
0.0252687
0.0222453
0.0192624
0.0164736
0.0139982
0.011942
0.0102415
0.0087889
0.00762687
0.00676777
0.00613586
0.00564526
0.00528589
0.00501711
0.00481726
0.00467803
0.00458142
0.00452286
0.00448996
0.00448442
0.00450026
0.00453098
0.00457785
0.00463552
0.00470651
0.00478255
0.00486903
0.00496239
0.00506394
0.00516852
0.00528227
0.00540629
0.00553229
0.00570248
0.0428363
0.0419405
0.040414
0.0384265
0.0360597
0.0333874
0.0304463
0.0273422
0.0241733
0.0210875
0.0182192
0.0157231
0.0135679
0.0116695
0.0100988
0.00890299
0.00800045
0.0072938
0.0067661
0.00636154
0.00606022
0.00584377
0.00568541
0.00557708
0.00550802
0.00547558
0.00546818
0.00548447
0.00552314
0.00557305
0.00564011
0.00571892
0.00580871
0.00590567
0.00601437
0.0061314
0.00625691
0.006394
0.0065418
0.00674235
0.0472803
0.0464989
0.0451149
0.04328
0.0410605
0.0385122
0.0356522
0.0325604
0.0293151
0.0260529
0.0228991
0.020041
0.0174634
0.0151142
0.0130989
0.0115136
0.0102819
0.00930294
0.00855741
0.00797509
0.00753673
0.00721458
0.00696903
0.0067952
0.00667493
0.00659886
0.00656154
0.00655475
0.00657256
0.00661181
0.00667215
0.00674564
0.0068345
0.00693419
0.00704591
0.0071691
0.00730764
0.0074582
0.0076218
0.00785557
0.0515759
0.0509023
0.0496581
0.0479786
0.045918
0.0435189
0.0407843
0.0377722
0.0345395
0.0312026
0.0278803
0.0247542
0.0218336
0.0190751
0.0166185
0.0146183
0.0130131
0.0117112
0.0106982
0.00989315
0.00927796
0.0088168
0.00845748
0.00819569
0.00800183
0.00787065
0.00779097
0.00774726
0.00773909
0.00775834
0.00780297
0.00786838
0.0079504
0.00804609
0.00815968
0.00828547
0.00843152
0.00859665
0.0087759
0.00903973
0.0556994
0.0551252
0.0540141
0.0524865
0.0505876
0.0483497
0.0457663
0.0428788
0.0397253
0.0364003
0.033008
0.0297215
0.0265465
0.0234546
0.0206009
0.0181916
0.0161964
0.0145377
0.0132155
0.0121438
0.0113114
0.010673
0.0101712
0.00979755
0.00950835
0.00930392
0.00916365
0.00907377
0.00902843
0.00901745
0.0090403
0.00908627
0.00915867
0.00924556
0.00935375
0.00948056
0.00963022
0.00980672
0.0100022
0.0102949
0.0596337
0.0591492
0.058162
0.056779
0.0550379
0.0529636
0.0505435
0.0478067
0.0447767
0.0415279
0.038147
0.0347948
0.0314655
0.0281306
0.0249515
0.0221754
0.0198013
0.0177742
0.0161177
0.0147434
0.0136568
0.0128058
0.0121282
0.0116127
0.0112077
0.0109109
0.0106932
0.0105426
0.0104461
0.0103961
0.0103856
0.0104072
0.010458
0.0105331
0.0106312
0.0107525
0.0109037
0.0110851
0.011298
0.0116202
0.0633674
0.0629628
0.0620887
0.0608401
0.059249
0.0573343
0.0550799
0.052506
0.0496254
0.0464957
0.0431864
0.0398412
0.0364501
0.0329691
0.0295568
0.02648
0.0237658
0.0213832
0.0193826
0.0176883
0.0163207
0.0152268
0.014343
0.013657
0.0131113
0.0126992
0.012388
0.0121586
0.0119995
0.0118961
0.0118453
0.0118307
0.0118553
0.011907
0.0119918
0.0121024
0.0122505
0.0124345
0.0126608
0.0130132
0.0668946
0.0665602
0.065788
0.0646622
0.0632102
0.0614468
0.0593539
0.0569454
0.0542266
0.0512418
0.0480456
0.0447635
0.0413812
0.0378416
0.0342853
0.0309918
0.0280006
0.0253022
0.0229713
0.0209555
0.0192929
0.0179341
0.0168198
0.0159377
0.0152275
0.0146781
0.0142551
0.0139299
0.0136937
0.0135246
0.0134189
0.0133621
0.0133492
0.0133727
0.0134338
0.0135298
0.0136675
0.0138526
0.014087
0.0144713
0.0702133
0.0699399
0.0692599
0.0682437
0.0669185
0.0652956
0.0633558
0.0611085
0.0585541
0.0557266
0.0526686
0.0494876
0.0461645
0.0426391
0.0390236
0.0355946
0.0323964
0.0294398
0.0268189
0.0245007
0.0225467
0.0209123
0.0195511
0.0184529
0.0175582
0.0168505
0.0162947
0.0158595
0.0155301
0.0152843
0.0151122
0.0149994
0.0149433
0.0149282
0.0149603
0.0150332
0.0151568
0.0153371
0.0155775
0.0159918
0.0733247
0.0731027
0.0725026
0.0715858
0.0703758
0.0688816
0.0670842
0.0649901
0.0625964
0.0599293
0.0570221
0.0539666
0.0507403
0.0472795
0.043673
0.0401795
0.036854
0.0337075
0.0308473
0.0282631
0.0260317
0.0241288
0.0225179
0.0211904
0.0200935
0.0192134
0.0185078
0.0179479
0.0175106
0.0171732
0.016926
0.0167464
0.0166352
0.0165753
0.0165693
0.0166133
0.0167163
0.0168845
0.0171297
0.0175716
0.076235
0.0760561
0.0755247
0.0746956
0.0735887
0.0722111
0.0705445
0.0685931
0.0663524
0.0638426
0.0610897
0.0581721
0.0550655
0.0517049
0.0481602
0.0446656
0.0412775
0.0380059
0.0349707
0.032165
0.0296914
0.0275394
0.0256833
0.0241271
0.0228204
0.0217581
0.0208886
0.0201881
0.019633
0.0191914
0.0188563
0.0186021
0.0184268
0.0183109
0.0182607
0.0182682
0.0183425
0.0184959
0.0187408
0.0192064
0.0789517
0.0788099
0.0783366
0.0775837
0.0765679
0.0752947
0.0737467
0.0719267
0.0698289
0.0674693
0.0648685
0.0620931
0.0591181
0.0558774
0.0524324
0.0489856
0.0455886
0.0422588
0.0391084
0.0361364
0.0334633
0.0310941
0.0290095
0.0272328
0.0257161
0.0244639
0.0234254
0.0225736
0.0218876
0.0213346
0.0209021
0.0205612
0.0203121
0.0201342
0.0200316
0.0199939
0.0200354
0.0201682
0.0204077
0.0208967
0.0814822
0.0813694
0.0809472
0.0802611
0.0793258
0.0781457
0.0767045
0.075004
0.0730381
0.0708195
0.0683647
0.0657307
0.0628929
0.0597862
0.0564616
0.0530972
0.0497373
0.0463984
0.0431852
0.0401075
0.0372833
0.0347307
0.0324486
0.030471
0.0287526
0.0273111
0.0261025
0.0250934
0.0242673
0.0235918
0.0230527
0.0226206
0.0222901
0.0220399
0.0218763
0.0217898
0.0217913
0.0218973
0.0221256
0.0226388
0.0838387
0.0837481
0.0833689
0.0827408
0.0818762
0.0807787
0.0794331
0.0778407
0.0759954
0.0739075
0.0715904
0.069093
0.0663921
0.0634252
0.0602338
0.0569745
0.0536846
0.0503752
0.0471507
0.0440159
0.0410874
0.0383959
0.035952
0.0337944
0.0318957
0.0302725
0.0288939
0.0277308
0.0267607
0.0259563
0.0253033
0.0247707
0.0243511
0.024025
0.0237944
0.0236512
0.0236052
0.0236784
0.023895
0.0244297
0.0860273
0.0859557
0.0856137
0.0850359
0.0842334
0.083209
0.0819489
0.080454
0.0787183
0.0767505
0.0745616
0.0721939
0.0696259
0.0667987
0.0637463
0.0606063
0.0574097
0.054163
0.050963
0.0478112
0.0448279
0.042041
0.039468
0.0371617
0.0351026
0.0333167
0.0317772
0.0304609
0.0293509
0.0284165
0.0276456
0.0270071
0.0264912
0.0260815
0.0257776
0.0255715
0.0254757
0.0255118
0.0257116
0.0262656
0.0880612
0.0880046
0.0876941
0.0871601
0.0864121
0.0854525
0.0842686
0.0828613
0.0812251
0.0793672
0.0772969
0.075051
0.0726097
0.069918
0.0670046
0.0639912
0.0609025
0.0577412
0.0545956
0.0514641
0.0484625
0.0456199
0.0429582
0.040536
0.038341
0.0364139
0.0347283
0.0332644
0.0320152
0.0309511
0.0300609
0.0293142
0.0287028
0.0282055
0.0278234
0.0275492
0.0273975
0.0273919
0.0275707
0.028142
0.0899523
0.0899073
0.0896234
0.0891272
0.0884268
0.0875245
0.0864087
0.0850802
0.0835341
0.0817765
0.0798156
0.0776833
0.0753617
0.0727995
0.0700198
0.0671361
0.0641635
0.0611018
0.0580311
0.0549484
0.0519598
0.0490935
0.0463784
0.0438745
0.0415772
0.0395278
0.0377126
0.0361192
0.0347372
0.0335471
0.0325391
0.0316832
0.0309729
0.0303851
0.0299215
0.0295756
0.0293634
0.029312
0.0294666
0.0300537
0.0917111
0.0916753
0.0914138
0.0909502
0.0902917
0.0894401
0.088385
0.0871274
0.0856628
0.0839968
0.0821365
0.08011
0.0779014
0.0754634
0.0728145
0.0700565
0.0672018
0.0642472
0.0612625
0.0582507
0.0552991
0.0524443
0.0497082
0.0471528
0.0447773
0.0426338
0.040707
0.0389969
0.0374968
0.0361887
0.035067
0.0341039
0.0332944
0.0326145
0.0320672
0.0316475
0.0313714
0.0312713
0.0313992
0.0320012
0.0933488
0.0933198
0.0930773
0.0926419
0.0920201
0.0912134
0.0902128
0.089019
0.0876283
0.0860458
0.0842778
0.0823494
0.0802465
0.0779264
0.0754053
0.0727681
0.0700307
0.0671875
0.0642999
0.0613708
0.0584771
0.0556547
0.0529237
0.0503444
0.0479201
0.0457028
0.0436899
0.0418798
0.0402688
0.0388516
0.037623
0.036557
0.0356515
0.03488
0.0342486
0.0337551
0.0334133
0.0332628
0.0333622
0.033979
0.0948758
0.0948517
0.0946251
0.0942141
0.0936246
0.0928579
0.091906
0.0907699
0.0894463
0.08794
0.0862568
0.0844191
0.0824145
0.0802042
0.0778027
0.0752841
0.0726626
0.0699322
0.0671474
0.06431
0.0614882
0.0587153
0.0560092
0.053427
0.0509815
0.0487176
0.0466356
0.0447433
0.0430369
0.0415223
0.0401954
0.0390319
0.0380366
0.0371743
0.0364621
0.0358893
0.0354797
0.0352792
0.0353492
0.0359816
0.0963018
0.0962811
0.0960677
0.0956779
0.0951168
0.0943859
0.0934778
0.0923939
0.0911315
0.0896949
0.0880898
0.0863361
0.0844229
0.0823152
0.0800257
0.0776205
0.075112
0.0724935
0.0698138
0.0670737
0.0643334
0.0616231
0.0589563
0.0563948
0.0539441
0.0516577
0.0495315
0.0475765
0.0457917
0.0441897
0.0427774
0.0415208
0.0404358
0.0394899
0.0386953
0.0380452
0.0375704
0.0373141
0.0373536
0.0380035
0.0976358
0.0976172
0.0974149
0.0970435
0.0965075
0.0958086
0.0949402
0.0939037
0.0926972
0.0913247
0.0897916
0.088116
0.0862883
0.0842766
0.0820919
0.0797941
0.0773941
0.0748851
0.0723104
0.0696702
0.0670178
0.0643805
0.061769
0.0592427
0.0568056
0.0545088
0.0523587
0.0503584
0.0485161
0.0468401
0.0453475
0.0440111
0.0428405
0.0418161
0.0409447
0.0402184
0.0396745
0.0393654
0.0393752
0.0400402
0.0988861
0.0988684
0.0986754
0.09832
0.0978065
0.0971363
0.0963038
0.0953107
0.0941554
0.092842
0.0913756
0.0897727
0.0880253
0.0861052
0.0840173
0.0818205
0.0795241
0.0771211
0.0746499
0.0721099
0.0695487
0.066991
0.0644452
0.0619666
0.0595589
0.0572695
0.0551064
0.0530819
0.0511977
0.0494617
0.0478988
0.0464924
0.0452458
0.0441458
0.0431967
0.0424009
0.0417904
0.0414253
0.0414098
0.0420919
0.10006
0.100042
0.0998573
0.099516
0.0990224
0.0983783
0.0975786
0.0966253
0.0955171
0.0942583
0.0928537
0.0913184
0.0896455
0.0878092
0.0858139
0.0837132
0.0815158
0.0792152
0.0768452
0.0744041
0.0719351
0.0694606
0.0669872
0.0645658
0.0621994
0.0599321
0.0577723
0.0557354
0.0538263
0.052043
0.0504212
0.0489534
0.0476392
0.0464688
0.0454486
0.0445858
0.0439115
0.0434924
0.0434488
0.0441536
0.101164
0.101146
0.100968
0.100639
0.100163
0.0995429
0.0987734
0.0978567
0.0967922
0.095584
0.094237
0.0927652
0.0911632
0.0894037
0.0874948
0.0854849
0.0833819
0.0811799
0.0789104
0.0765644
0.0741868
0.0717972
0.0694002
0.0670424
0.0647262
0.0624921
0.0603481
0.0583082
0.0563872
0.0545724
0.0529041
0.0513833
0.0500092
0.0487732
0.0476917
0.0467653
0.0460302
0.0455601
0.0454853
0.0462171
0.102205
0.102186
0.102013
0.101695
0.101236
0.100638
0.099896
0.0990134
0.0979895
0.0968285
0.095535
0.094122
0.0925848
0.0908986
0.0890713
0.0871473
0.0851338
0.0830254
0.0808506
0.0785996
0.0763133
0.0740092
0.0716909
0.0694008
0.067141
0.0649487
0.0628311
0.0608015
0.0588768
0.0570423
0.0553389
0.0537717
0.0523457
0.0510553
0.0499136
0.0489307
0.0481393
0.0476204
0.0475191
0.0482789
0.103187
0.103167
0.102999
0.102691
0.102248
0.101669
0.100954
0.100103
0.0991171
0.0980003
0.0967574
0.0954006
0.0939225
0.0923046
0.0905542
0.0887114
0.0867831
0.084764
0.0826794
0.0805207
0.0783245
0.0761055
0.0738673
0.071647
0.0694475
0.0673028
0.0652197
0.0632101
0.0612909
0.0594469
0.0577193
0.056118
0.0546477
0.0533091
0.0521127
0.0510753
0.050232
0.0496661
0.0495446
0.0503342
0.104115
0.104094
0.103931
0.103632
0.103203
0.102643
0.101952
0.101132
0.100182
0.0991069
0.0979119
0.0966053
0.0951837
0.0936305
0.0919526
0.090187
0.08834
0.0864079
0.0844078
0.0823377
0.0802314
0.0780948
0.0759386
0.0737874
0.0716502
0.0695574
0.0675146
0.0655325
0.0636265
0.0617819
0.0600392
0.0584087
0.0569067
0.0555277
0.0542835
0.0531916
0.0523022
0.0516957
0.0515573
0.0523769
0.104993
0.104971
0.104812
0.104523
0.104106
0.103565
0.102897
0.102106
0.101191
0.100155
0.099002
0.0977433
0.0963755
0.0948837
0.0932748
0.0915824
0.0898123
0.0879607
0.0860429
0.0840577
0.0820359
0.0799816
0.077905
0.0758268
0.073754
0.0717158
0.0697177
0.0677692
0.0658822
0.0640446
0.0622954
0.060646
0.059118
0.0577051
0.0564196
0.0552812
0.054345
0.0537042
0.0535537
0.0544088
0.105824
0.105802
0.105647
0.105366
0.104963
0.104439
0.103793
0.103029
0.102145
0.101145
0.100033
0.0988206
0.0975044
0.0960714
0.0945283
0.0929062
0.0912106
0.0894338
0.0875944
0.0856905
0.0837494
0.0817751
0.079776
0.0777733
0.0757648
0.0737823
0.0718317
0.0699228
0.0680576
0.0662328
0.0644848
0.0628247
0.0612769
0.0598358
0.058515
0.0573389
0.0563611
0.0556881
0.0555267
0.056425
0.106612
0.10659
0.10644
0.106167
0.105777
0.10527
0.104645
0.103904
0.103049
0.102083
0.101011
0.099843
0.0985764
0.0971998
0.0957197
0.0941653
0.0925375
0.0908334
0.08907
0.0872457
0.0853805
0.0834847
0.0815582
0.0796268
0.0776875
0.0757613
0.0738591
0.0719886
0.0701508
0.0683452
0.066605
0.0649413
0.0633793
0.0619145
0.0605685
0.0593606
0.0583464
0.0576441
0.0574715
0.0584207
0.107359
0.107337
0.107193
0.106929
0.10655
0.106057
0.105451
0.104734
0.103907
0.102975
0.101941
0.100816
0.0995973
0.0982747
0.0968551
0.0953619
0.0937998
0.0921659
0.0904762
0.0887246
0.0869334
0.0851111
0.083257
0.0813941
0.0795209
0.0776565
0.0758049
0.0739718
0.0721617
0.0703816
0.0686553
0.0669942
0.0654219
0.0639441
0.0625777
0.061343
0.0602972
0.0595693
0.059391
0.0603933
0.108065
0.108045
0.107904
0.107649
0.107281
0.106803
0.106216
0.105522
0.104723
0.103824
0.102828
0.101744
0.100573
0.0993013
0.0979362
0.096502
0.0950031
0.0934372
0.0918146
0.0901341
0.088416
0.0866632
0.0848806
0.0830826
0.0812722
0.0794654
0.0776651
0.0758748
0.0740975
0.072344
0.0706358
0.0689831
0.0674085
0.0659222
0.0645402
0.0632833
0.0622104
0.0614603
0.0612817
0.0623393
0.108732
0.108713
0.108577
0.10833
0.107974
0.107512
0.106944
0.106274
0.105503
0.104635
0.103675
0.102632
0.101502
0.100279
0.0989673
0.0975904
0.0961527
0.0946486
0.0930912
0.0914797
0.0898284
0.0881451
0.0864283
0.0846973
0.0829488
0.0811962
0.079446
0.0777013
0.0759577
0.0742332
0.0725467
0.0709072
0.0693365
0.0678468
0.0664538
0.0651791
0.0640833
0.0633139
0.0631366
0.0642545
0.109363
0.109346
0.109216
0.108977
0.108634
0.108188
0.107639
0.106992
0.106249
0.105412
0.104486
0.103479
0.102391
0.101214
0.0999534
0.0986319
0.0972497
0.0958055
0.0943115
0.0927624
0.0911752
0.0895566
0.0879045
0.0862361
0.0845474
0.0828525
0.0811519
0.0794476
0.0777417
0.0760496
0.0743885
0.0727665
0.0712047
0.0697164
0.0683169
0.0670285
0.0659134
0.0651272
0.0649526
0.0661356
0.10996
0.109946
0.109822
0.109593
0.109262
0.108833
0.108304
0.107679
0.106961
0.106153
0.10526
0.104289
0.103241
0.10211
0.100899
0.0996275
0.0982989
0.0969129
0.0954765
0.0939879
0.092464
0.0909057
0.0893169
0.0877082
0.0860744
0.0844323
0.0827796
0.0811153
0.079451
0.0777944
0.0761619
0.0745614
0.0730128
0.0715303
0.0701284
0.0688298
0.067699
0.0668981
0.0667261
0.0679802
0.110525
0.110515
0.110399
0.11018
0.109862
0.109447
0.108936
0.108333
0.107639
0.10686
0.106
0.105066
0.104056
0.102967
0.101802
0.100581
0.0993039
0.0979706
0.0965915
0.0951609
0.0936942
0.0921957
0.0906638
0.0891117
0.0875342
0.0859433
0.0843369
0.0827135
0.0810895
0.0794699
0.0778687
0.0762929
0.0747613
0.0732884
0.0718878
0.0705818
0.0694389
0.0686247
0.0684608
0.0697853
0.111059
0.111052
0.110943
0.110734
0.110429
0.11003
0.109538
0.108958
0.10829
0.107539
0.10671
0.105808
0.104835
0.103787
0.102666
0.10149
0.100262
0.0989813
0.097654
0.0962788
0.0948698
0.0934259
0.0919512
0.0904526
0.0889247
0.0873811
0.0858183
0.084241
0.0826594
0.0810784
0.0795107
0.0779624
0.0764512
0.0749914
0.0735956
0.0722832
0.0711324
0.0703106
0.0701554
0.0715502
0.111562
0.111559
0.111458
0.111261
0.110969
0.110586
0.110112
0.109552
0.108908
0.108185
0.107387
0.106518
0.10558
0.104569
0.10349
0.10236
0.101178
0.0999448
0.0986691
0.0973469
0.0959911
0.0946003
0.0931779
0.0917286
0.0902517
0.0887525
0.0872344
0.0857021
0.0841636
0.0826225
0.08109
0.0795717
0.0780838
0.0766404
0.075253
0.0739403
0.0727834
0.0719551
0.0718091
0.0732736
0.112037
0.112038
0.111943
0.111756
0.111478
0.111112
0.110658
0.110119
0.109498
0.108801
0.10803
0.107194
0.10629
0.105317
0.104277
0.103188
0.102051
0.100864
0.099634
0.098362
0.097055
0.0957161
0.094342
0.0929431
0.091514
0.0900592
0.0885866
0.0870997
0.0856049
0.0841048
0.0826093
0.0811229
0.0796608
0.0782367
0.0768609
0.0755519
0.0743914
0.0735577
0.073421
0.0749529
0.112485
0.112489
0.1124
0.112222
0.111958
0.111608
0.111172
0.110655
0.110057
0.109385
0.108641
0.107833
0.106962
0.106026
0.105026
0.103976
0.102879
0.101737
0.100552
0.0993251
0.0980664
0.0967748
0.0954476
0.0940948
0.0927086
0.0913024
0.0898773
0.0884367
0.0869864
0.0855283
0.0840711
0.0826185
0.0811843
0.0797818
0.0784206
0.0771183
0.0759566
0.0751177
0.0749914
0.0765927
0.112908
0.112914
0.11283
0.11266
0.112407
0.112071
0.111653
0.111157
0.110584
0.109936
0.10922
0.108441
0.1076
0.106696
0.105734
0.104723
0.103666
0.102565
0.101423
0.100239
0.0990245
0.0977748
0.0964919
0.0951829
0.0938453
0.0924874
0.0911103
0.0897166
0.0883115
0.0868962
0.0854783
0.0840608
0.0826564
0.0812776
0.0799333
0.0786404
0.0774797
0.0766343
0.0765202
0.0781906
0.11331
0.113317
0.113236
0.113073
0.112828
0.112506
0.112105
0.111629
0.111078
0.110455
0.109765
0.109014
0.108202
0.107331
0.106403
0.105428
0.104409
0.103345
0.102244
0.101103
0.0999297
0.0987213
0.0974828
0.0962194
0.0949293
0.0936194
0.0922901
0.0909435
0.0895838
0.0882118
0.0868341
0.0854529
0.0840797
0.0827264
0.0814009
0.0801197
0.0789624
0.078114
0.0780097
0.0797494
0.113691
0.113699
0.113621
0.113463
0.113226
0.112914
0.112527
0.112069
0.111539
0.11094
0.110276
0.109551
0.108769
0.107928
0.107032
0.106091
0.105107
0.104082
0.103016
0.101914
0.100781
0.0996179
0.0984251
0.097208
0.0959652
0.0947029
0.0934211
0.0921214
0.0908071
0.0894787
0.0881416
0.0867975
0.0854566
0.0841302
0.0828254
0.0815578
0.080406
0.0795563
0.0794601
0.0812655
0.114056
0.114064
0.113988
0.113834
0.113604
0.1133
0.112925
0.112482
0.111971
0.111394
0.110754
0.110055
0.109301
0.108488
0.10762
0.10671
0.10576
0.10477
0.103744
0.102683
0.101591
0.100472
0.0993244
0.0981534
0.0969575
0.0957424
0.0945075
0.0932543
0.0919854
0.0907005
0.0894043
0.0880978
0.0867902
0.0854917
0.0842089
0.0829566
0.0818118
0.080962
0.0808722
0.0827393
0.114406
0.114413
0.114339
0.114188
0.113964
0.113668
0.113304
0.112873
0.112377
0.11182
0.111201
0.110524
0.109793
0.109007
0.108171
0.107294
0.106378
0.105424
0.104437
0.103415
0.102366
0.101289
0.100186
0.0990605
0.0979109
0.0967422
0.0955538
0.0943466
0.0931225
0.091881
0.0906257
0.0893572
0.0880833
0.0868135
0.0855538
0.0843183
0.083182
0.0823326
0.0822473
0.0841716
0.114743
0.11475
0.114677
0.114529
0.114309
0.114021
0.113666
0.113246
0.112765
0.112224
0.111625
0.110969
0.110262
0.109503
0.108696
0.107851
0.106968
0.10605
0.1051
0.104118
0.103109
0.102075
0.101015
0.0999342
0.09883
0.0977069
0.0965642
0.0954022
0.0942225
0.0930241
0.0918097
0.0905793
0.0893394
0.0880986
0.0868628
0.0856454
0.084519
0.0836704
0.0835872
0.0855632
0.11507
0.115075
0.115003
0.114858
0.114643
0.114361
0.114014
0.113606
0.113138
0.112613
0.112032
0.111397
0.110712
0.109979
0.109201
0.108386
0.107536
0.106652
0.105738
0.104795
0.103826
0.102833
0.101816
0.100779
0.0997192
0.0986409
0.0975431
0.0964258
0.0952899
0.0941341
0.0929605
0.0917681
0.0905623
0.0893502
0.0881389
0.0869408
0.0858257
0.084978
0.084894
0.0869156
0.115386
0.115391
0.11532
0.115177
0.114966
0.114691
0.114352
0.113954
0.113499
0.112989
0.112425
0.11181
0.111148
0.11044
0.109689
0.108903
0.108085
0.107235
0.106357
0.105451
0.104521
0.103569
0.102594
0.101599
0.100583
0.099549
0.0984954
0.0974221
0.0963295
0.0952159
0.0940827
0.0929283
0.0917567
0.0905715
0.0893857
0.0882085
0.0871063
0.086259
0.086171
0.0882307
0.115693
0.115697
0.115627
0.115487
0.11528
0.115011
0.11468
0.114292
0.113849
0.113354
0.112807
0.112211
0.111571
0.110887
0.110163
0.109406
0.108619
0.107802
0.106959
0.10609
0.105199
0.104286
0.103353
0.1024
0.101427
0.100436
0.0994263
0.0983964
0.0973466
0.0962748
0.0951818
0.0940654
0.0929284
0.0917732
0.0906133
0.0894575
0.0883664
0.0875177
0.0874213
0.0895108
0.115991
0.115995
0.115926
0.115788
0.115585
0.115322
0.114999
0.114621
0.114191
0.113709
0.113179
0.112603
0.111984
0.111324
0.110626
0.109898
0.109142
0.108357
0.107549
0.106716
0.105863
0.10499
0.104098
0.103187
0.102257
0.101309
0.100342
0.099355
0.0983475
0.0973171
0.0962638
0.0951852
0.094083
0.0929588
0.0918254
0.090693
0.0896104
0.0887584
0.0886491
0.090758
0.116282
0.116285
0.116216
0.116081
0.115883
0.115625
0.115311
0.114943
0.114524
0.114057
0.113544
0.112986
0.112389
0.111753
0.111082
0.110383
0.109657
0.108905
0.108132
0.107336
0.106521
0.105688
0.104836
0.103967
0.103079
0.102174
0.101249
0.100305
0.0993393
0.0983497
0.0973357
0.0962944
0.0952269
0.0941336
0.0930263
0.0919142
0.0908416
0.0899855
0.0898588
0.0919756
0.116566
0.116568
0.1165
0.116367
0.116173
0.115921
0.115615
0.115257
0.114851
0.114399
0.113903
0.113365
0.112789
0.112178
0.111534
0.110864
0.11017
0.109452
0.108713
0.107954
0.107178
0.106385
0.105574
0.104746
0.103901
0.103038
0.102156
0.101254
0.10033
0.0993802
0.0984049
0.0974003
0.0963669
0.0953043
0.0942224
0.0931284
0.0920658
0.0912044
0.0910555
0.0931679
0.116845
0.116845
0.116778
0.116648
0.116458
0.116213
0.115915
0.115568
0.115175
0.114738
0.11426
0.113742
0.11319
0.112604
0.111989
0.111349
0.110687
0.110003
0.109301
0.10858
0.107843
0.10709
0.10632
0.105535
0.104731
0.103911
0.103071
0.10221
0.101326
0.100416
0.0994789
0.0985103
0.0975104
0.096478
0.0954205
0.0943414
0.0932892
0.0924211
0.0922451
0.094339
0.117121
0.11712
0.117053
0.116926
0.116741
0.116503
0.116214
0.115879
0.1155
0.11508
0.114621
0.114125
0.113598
0.113039
0.112453
0.111845
0.111216
0.110569
0.109904
0.109221
0.108524
0.107811
0.107082
0.106338
0.105576
0.104797
0.103998
0.103178
0.102333
0.101462
0.100561
0.0996279
0.0986613
0.0976601
0.0966269
0.0955645
0.0945195
0.0936415
0.0934316
0.0954932
0.117399
0.117397
0.117331
0.117207
0.117028
0.116797
0.116519
0.116197
0.115834
0.115432
0.114994
0.114523
0.114021
0.113492
0.112937
0.112361
0.111767
0.111155
0.110527
0.109882
0.109224
0.10855
0.107862
0.107158
0.106436
0.105697
0.104938
0.104156
0.103351
0.102516
0.101652
0.100754
0.09982
0.0988518
0.0978417
0.0967969
0.0957598
0.0948704
0.0946198
0.0966353
0.117689
0.117685
0.11762
0.1175
0.117327
0.117106
0.11684
0.116533
0.116187
0.115805
0.11539
0.114943
0.114468
0.113968
0.113443
0.1129
0.11234
0.111763
0.111171
0.110564
0.109943
0.109308
0.108658
0.107994
0.107311
0.106611
0.105891
0.105148
0.104379
0.103582
0.102753
0.101888
0.100986
0.100048
0.0990631
0.0980374
0.0970095
0.0961099
0.0958124
0.0977693
0.118002
0.117996
0.117932
0.117815
0.117649
0.117438
0.117185
0.116892
0.116564
0.116203
0.11581
0.115388
0.11494
0.114468
0.113974
0.113463
0.112936
0.112393
0.111837
0.111266
0.110683
0.110086
0.109474
0.108847
0.108203
0.107541
0.106858
0.106152
0.10542
0.104658
0.103863
0.103032
0.102161
0.101252
0.100292
0.0992862
0.0982684
0.0973602
0.0970164
0.0989001
0.118341
0.118332
0.118269
0.118156
0.117997
0.117796
0.117555
0.117278
0.116967
0.116626
0.116256
0.115859
0.115437
0.114993
0.114529
0.11405
0.113555
0.113047
0.112526
0.111991
0.111444
0.110883
0.110309
0.10972
0.109113
0.108488
0.107842
0.107172
0.106475
0.105747
0.104986
0.104186
0.103347
0.102465
0.10153
0.100544
0.0995368
0.0986213
0.0982326
0.100031
0.118707
0.118696
0.118634
0.118525
0.118373
0.118181
0.117953
0.117691
0.117398
0.117076
0.116729
0.116357
0.115961
0.115545
0.11511
0.114662
0.1142
0.113725
0.113238
0.112738
0.112227
0.111703
0.111165
0.110612
0.110042
0.109453
0.108843
0.108208
0.107545
0.106851
0.106122
0.105354
0.104545
0.10369
0.102778
0.101811
0.100816
0.0998936
0.099461
0.101163
0.119101
0.119089
0.119027
0.118922
0.118777
0.118595
0.118378
0.118131
0.117855
0.117554
0.117229
0.116881
0.116511
0.116123
0.115718
0.1153
0.114871
0.114429
0.113976
0.113511
0.113036
0.112547
0.112045
0.111528
0.110993
0.11044
0.109864
0.109263
0.108634
0.107972
0.107274
0.106537
0.105759
0.104928
0.104039
0.10309
0.102105
0.101178
0.100701
0.102299
0.119524
0.119509
0.119449
0.119348
0.119209
0.119037
0.118833
0.1186
0.118342
0.11806
0.117757
0.117434
0.11709
0.116729
0.116354
0.115968
0.11557
0.115162
0.114743
0.114313
0.113872
0.113419
0.112952
0.11247
0.11197
0.11145
0.110908
0.11034
0.109742
0.109111
0.108444
0.107736
0.106986
0.10618
0.105312
0.104381
0.103407
0.102475
0.101955
0.103439
0.119974
0.119958
0.119899
0.119802
0.119671
0.119508
0.119316
0.119099
0.118858
0.118597
0.118316
0.118017
0.1177
0.117367
0.117022
0.116667
0.116301
0.115926
0.115541
0.115145
0.114739
0.11432
0.113887
0.113439
0.112973
0.112487
0.111977
0.11144
0.110873
0.110272
0.109634
0.108954
0.10823
0.107446
0.106598
0.105685
0.104722
0.103785
0.103221
0.104585
0.120453
0.120435
0.120378
0.120285
0.120161
0.120009
0.119831
0.119629
0.119407
0.119166
0.118908
0.118634
0.118344
0.11804
0.117725
0.117401
0.117068
0.116726
0.116374
0.116012
0.115639
0.115254
0.114855
0.11444
0.114006
0.113551
0.113072
0.112565
0.112027
0.111455
0.110844
0.110194
0.109491
0.108728
0.1079
0.107003
0.106051
0.105109
0.104503
0.10574
0.120961
0.120942
0.120887
0.1208
0.120684
0.120543
0.120378
0.120194
0.11999
0.119771
0.119537
0.119289
0.119026
0.118752
0.118468
0.118175
0.117874
0.117564
0.117245
0.116916
0.116576
0.116223
0.115855
0.115472
0.115068
0.114643
0.114193
0.113715
0.113205
0.112659
0.112074
0.111449
0.110768
0.110026
0.109216
0.108335
0.107393
0.106448
0.105799
0.106905
0.121501
0.121481
0.121429
0.121348
0.121242
0.121113
0.120964
0.120796
0.120614
0.120417
0.120207
0.119986
0.119751
0.119507
0.119252
0.11899
0.11872
0.118442
0.118155
0.117857
0.117548
0.117226
0.116888
0.116534
0.116159
0.115762