/*--------------------------------*- C++ -*----------------------------------*\
| =========                 |                                                 |
| \\      /  F ield         | OpenFOAM: The Open Source CFD Toolbox           |
|  \\    /   O peration     | Version:  5.x                                   |
|   \\  /    A nd           | Web:      www.OpenFOAM.org                      |
|    \\/     M anipulation  |                                                 |
\*---------------------------------------------------------------------------*/
FoamFile
{
    version     2.0;
    format      ascii;
    class       volScalarField;
    location    "100";
    object      p;
}
// * * * * * * * * * * * * * * * * * * * * * * * * * * * * * * * * * * * * * //

dimensions      [0 2 -2 0 0 0 0];

internalField   nonuniform List<scalar> 
26000
(
-0.000893339
-1.01703
-1.66745
-2.11973
-2.45429
-2.69208
-2.84028
-2.93168
-2.975
-2.99136
-2.99116
-2.98115
-2.97225
-2.94706
-2.92596
-2.90869
-2.88806
-2.86465
-2.83996
-2.81437
-2.78826
-2.76198
-2.73445
-2.70524
-2.67463
-2.64467
-2.61605
-2.58794
-2.56009
-2.53211
-2.50462
-2.47736
-2.45043
-2.42383
-2.39757
-2.37176
-2.34629
-2.32115
-2.29583
-2.2675
0.198364
-0.234768
-0.742844
-1.27723
-1.78528
-2.21452
-2.53265
-2.7441
-2.86787
-2.93039
-2.95665
-2.96099
-2.95979
-2.94455
-2.92578
-2.90815
-2.88975
-2.86872
-2.84574
-2.82103
-2.79531
-2.76893
-2.74098
-2.71166
-2.68119
-2.65099
-2.62175
-2.59296
-2.56465
-2.53633
-2.5084
-2.48067
-2.45318
-2.426
-2.39913
-2.37276
-2.3468
-2.32107
-2.29529
-2.26763
-0.090985
-0.252178
-0.494577
-0.842854
-1.27287
-1.7231
-2.13189
-2.45377
-2.6775
-2.81238
-2.88477
-2.91469
-2.92905
-2.92543
-2.91275
-2.89737
-2.88153
-2.86282
-2.84191
-2.81884
-2.79406
-2.76863
-2.74158
-2.71324
-2.68339
-2.65306
-2.62347
-2.5942
-2.56557
-2.53699
-2.50872
-2.4807
-2.45284
-2.42536
-2.39813
-2.37148
-2.34523
-2.31917
-2.29323
-2.26566
-0.235443
-0.376804
-0.531619
-0.727144
-1.00226
-1.34897
-1.73496
-2.10083
-2.40449
-2.62135
-2.75956
-2.83265
-2.87536
-2.89063
-2.88975
-2.88025
-2.86839
-2.85285
-2.83467
-2.81387
-2.79057
-2.7663
-2.74015
-2.71277
-2.68378
-2.65381
-2.62425
-2.59473
-2.56583
-2.53699
-2.50843
-2.48014
-2.45198
-2.42422
-2.39666
-2.3697
-2.34314
-2.31672
-2.29057
-2.26292
-0.338697
-0.445885
-0.571138
-0.709471
-0.887349
-1.12105
-1.42256
-1.75835
-2.08855
-2.36601
-2.57251
-2.70186
-2.78692
-2.8326
-2.85143
-2.85272
-2.84764
-2.83673
-2.82218
-2.80449
-2.78341
-2.76094
-2.7361
-2.70987
-2.68198
-2.65269
-2.62346
-2.5939
-2.56486
-2.53585
-2.50709
-2.47862
-2.45022
-2.42224
-2.39441
-2.36717
-2.34032
-2.31359
-2.28728
-2.25941
-0.432321
-0.510295
-0.6063
-0.716771
-0.850321
-1.01133
-1.22671
-1.49162
-1.7919
-2.08521
-2.33741
-2.52076
-2.65506
-2.7424
-2.79088
-2.80995
-2.81624
-2.81265
-2.80327
-2.78985
-2.7719
-2.75199
-2.72904
-2.70434
-2.67785
-2.64954
-2.62096
-2.59162
-2.56263
-2.5336
-2.50473
-2.47613
-2.44755
-2.41942
-2.39135
-2.36388
-2.33679
-2.30978
-2.28336
-2.2552
-0.512116
-0.575018
-0.649137
-0.736432
-0.844379
-0.967164
-1.12393
-1.31895
-1.56013
-1.82691
-2.0877
-2.30539
-2.48176
-2.61489
-2.70151
-2.74651
-2.77026
-2.77817
-2.77647
-2.76891
-2.75517
-2.7387
-2.71835
-2.69569
-2.67101
-2.64402
-2.61646
-2.58767
-2.55898
-2.5301
-2.50125
-2.47264
-2.44395
-2.41573
-2.38748
-2.35985
-2.33256
-2.30531
-2.27884
-2.25032
-0.579296
-0.634266
-0.695747
-0.765757
-0.853551
-0.953222
-1.07558
-1.22137
-1.40446
-1.62376
-1.86055
-2.085
-2.28333
-2.45438
-2.58077
-2.65781
-2.70524
-2.7299
-2.73944
-2.7401
-2.7321
-2.72022
-2.70338
-2.68344
-2.66107
-2.6358
-2.60966
-2.58177
-2.55369
-2.52517
-2.49649
-2.46801
-2.43932
-2.41111
-2.38277
-2.35503
-2.32759
-2.30015
-2.27369
-2.24479
-0.636955
-0.686896
-0.741324
-0.800626
-0.873187
-0.955664
-1.05578
-1.1709
-1.3109
-1.48306
-1.68001
-1.88838
-2.08477
-2.2758
-2.43378
-2.54339
-2.61816
-2.6645
-2.68948
-2.70149
-2.70137
-2.69555
-2.68334
-2.66695
-2.64753
-2.6245
-2.60021
-2.57363
-2.54648
-2.5186
-2.49031
-2.46212
-2.43356
-2.40546
-2.37711
-2.34935
-2.32184
-2.29425
-2.26788
-2.23858
-0.687166
-0.733591
-0.783652
-0.836734
-0.899163
-0.968897
-1.05255
-1.14752
-1.25882
-1.39427
-1.55121
-1.73224
-1.90899
-2.09956
-2.27345
-2.40906
-2.50992
-2.58039
-2.62436
-2.65106
-2.66143
-2.6635
-2.65733
-2.64553
-2.62986
-2.60966
-2.58775
-2.56292
-2.53709
-2.51016
-2.48252
-2.45482
-2.42654
-2.39868
-2.37043
-2.34275
-2.31524
-2.28757
-2.26136
-2.23167
-0.731292
-0.775165
-0.822187
-0.871419
-0.927434
-0.988484
-1.0599
-1.14032
-1.23223
-1.34175
-1.46634
-1.61875
-1.7686
-1.94336
-2.11611
-2.26606
-2.38638
-2.47936
-2.54361
-2.58744
-2.61089
-2.6229
-2.62441
-2.61843
-2.60746
-2.59083
-2.57187
-2.5493
-2.52522
-2.49961
-2.4729
-2.44593
-2.41812
-2.39066
-2.36264
-2.33513
-2.30773
-2.28004
-2.25408
-2.22402
-0.770333
-0.812295
-0.857048
-0.903614
-0.955371
-1.01068
-1.07342
-1.14312
-1.22121
-1.31251
-1.4134
-1.54092
-1.66488
-1.81673
-1.9756
-2.12729
-2.25717
-2.36692
-2.44952
-2.51087
-2.54915
-2.5729
-2.58377
-2.58495
-2.57974
-2.56754
-2.55218
-2.53244
-2.51059
-2.4867
-2.46125
-2.43529
-2.40817
-2.38128
-2.35363
-2.32643
-2.29922
-2.27161
-2.24598
-2.21561
-0.805067
-0.845523
-0.888499
-0.933054
-0.981733
-1.03308
-1.08976
-1.15167
-1.21969
-1.29781
-1.38186
-1.48924
-1.5921
-1.72066
-1.85951
-2.0031
-2.13259
-2.25101
-2.34708
-2.42376
-2.47697
-2.5134
-2.53496
-2.54459
-2.54623
-2.53937
-2.52834
-2.51204
-2.49292
-2.47119
-2.44738
-2.42272
-2.39654
-2.37042
-2.34332
-2.31656
-2.28966
-2.26222
-2.237
-2.20638
-0.836122
-0.875321
-0.916826
-0.959758
-1.00604
-1.05445
-1.10676
-1.16302
-1.22366
-1.29204
-1.36409
-1.45553
-1.54236
-1.65078
-1.76898
-1.89894
-2.02066
-2.13971
-2.24281
-2.33044
-2.39673
-2.44544
-2.47824
-2.49723
-2.50665
-2.50602
-2.50004
-2.48783
-2.47197
-2.45287
-2.43109
-2.40806
-2.3831
-2.35797
-2.3316
-2.30543
-2.27898
-2.25181
-2.2271
-2.19631
-0.86401
-0.902106
-0.942325
-0.983862
-1.02817
-1.07422
-1.12322
-1.17524
-1.23041
-1.2915
-1.35492
-1.43381
-1.5087
-1.6009
-1.70097
-1.81556
-1.9256
-2.0391
-2.14296
-2.23614
-2.31209
-2.37125
-2.41477
-2.44334
-2.46111
-2.46743
-2.46715
-2.45965
-2.44758
-2.43157
-2.41223
-2.39117
-2.36773
-2.34383
-2.31839
-2.29297
-2.2671
-2.24033
-2.2162
-2.18535
-0.889151
-0.926239
-0.965287
-1.00556
-1.04816
-1.09221
-1.13855
-1.18724
-1.23824
-1.29376
-1.35083
-1.41993
-1.4858
-1.56534
-1.65073
-1.75064
-1.848
-1.95236
-2.05215
-2.14577
-2.22719
-2.2939
-2.34651
-2.38409
-2.41019
-2.42385
-2.42973
-2.42746
-2.41967
-2.4072
-2.3907
-2.37196
-2.35034
-2.32792
-2.30362
-2.27913
-2.25399
-2.22774
-2.20429
-2.17348
-0.911893
-0.948032
-0.985984
-1.02508
-1.06612
-1.10842
-1.1525
-1.19846
-1.24614
-1.29729
-1.34953
-1.41099
-1.46995
-1.53961
-1.61357
-1.7006
-1.7861
-1.87997
-1.97278
-2.06292
-2.14576
-2.21668
-2.27598
-2.32119
-2.35496
-2.37589
-2.38812
-2.39141
-2.38828
-2.37974
-2.36645
-2.35036
-2.33086
-2.31017
-2.28724
-2.26385
-2.23958
-2.21399
-2.1913
-2.16067
-0.932521
-0.967751
-1.00465
-1.04261
-1.08223
-1.12291
-1.16502
-1.20864
-1.25357
-1.30117
-1.3496
-1.40504
-1.45859
-1.52049
-1.58561
-1.66184
-1.73704
-1.82062
-1.90521
-1.98951
-2.07051
-2.1425
-2.20575
-2.25667
-2.29688
-2.32453
-2.34291
-2.35187
-2.35363
-2.34929
-2.33953
-2.32637
-2.30928
-2.29054
-2.26921
-2.24709
-2.22386
-2.19906
-2.17721
-2.14691
-0.951274
-0.985621
-1.02151
-1.05837
-1.09663
-1.13581
-1.17614
-1.21769
-1.26026
-1.3049
-1.3502
-1.40081
-1.45002
-1.50574
-1.56397
-1.6313
-1.69794
-1.7722
-1.84852
-1.9259
-2.00287
-2.07344
-2.13807
-2.19255
-2.23759
-2.27096
-2.29497
-2.3094
-2.31606
-2.31608
-2.31006
-2.30006
-2.28562
-2.26906
-2.24952
-2.22886
-2.20681
-2.18294
-2.16201
-2.13218
-0.968353
-1.00183
-1.03674
-1.07252
-1.10949
-1.14725
-1.18594
-1.22562
-1.2661
-1.3082
-1.35083
-1.3975
-1.44315
-1.49387
-1.54661
-1.60667
-1.66626
-1.73247
-1.80109
-1.87144
-1.94319
-2.01065
-2.07456
-2.13056
-2.1787
-2.21651
-2.2453
-2.26473
-2.27609
-2.28044
-2.27826
-2.27157
-2.25997
-2.24577
-2.22821
-2.20916
-2.18844
-2.16563
-2.1457
-2.1165
-0.98393
-1.01656
-1.05049
-1.08522
-1.12095
-1.15736
-1.19452
-1.23248
-1.27107
-1.31094
-1.35124
-1.39462
-1.43725
-1.48386
-1.53214
-1.58624
-1.64004
-1.69941
-1.76121
-1.82495
-1.89106
-1.95445
-2.01612
-2.07196
-2.12156
-2.16242
-2.19494
-2.21868
-2.23434
-2.24282
-2.24445
-2.24113
-2.23248
-2.22078
-2.20534
-2.18804
-2.16878
-2.14715
-2.12828
-2.09987
-0.998152
-1.02993
-1.06292
-1.0966
-1.13115
-1.16626
-1.20198
-1.23833
-1.2752
-1.31306
-1.35128
-1.39185
-1.43188
-1.47505
-1.51963
-1.56879
-1.61779
-1.67142
-1.72728
-1.78509
-1.84564
-1.90458
-1.96308
-2.0175
-2.06717
-2.10975
-2.14491
-2.1721
-2.19148
-2.20375
-2.20901
-2.20899
-2.20334
-2.19421
-2.18101
-2.16557
-2.14787
-2.12754
-2.10978
-2.08231
-1.01114
-1.04208
-1.07413
-1.10679
-1.14019
-1.17405
-1.20841
-1.24327
-1.27853
-1.31457
-1.3509
-1.38903
-1.42678
-1.467
-1.50843
-1.55347
-1.59845
-1.64723
-1.698
-1.75059
-1.80594
-1.86042
-1.91531
-1.96745
-2.01614
-2.05928
-2.09602
-2.12577
-2.1482
-2.16376
-2.17238
-2.17551
-2.1728
-2.16625
-2.15535
-2.14185
-2.1258
-2.10686
-2.09025
-2.06386
-1.02302
-1.05312
-1.08424
-1.1159
-1.14817
-1.18084
-1.2139
-1.24735
-1.28111
-1.31548
-1.35008
-1.38605
-1.42175
-1.45944
-1.49815
-1.53969
-1.58124
-1.62593
-1.67232
-1.72036
-1.771
-1.82126
-1.87239
-1.92179
-1.96876
-2.01153
-2.04893
-2.08035
-2.1051
-2.12342
-2.13499
-2.14102
-2.14114
-2.13711
-2.12852
-2.11699
-2.10265
-2.08517
-2.06974
-2.04457
-1.03387
-1.06315
-1.09334
-1.12401
-1.15519
-1.1867
-1.21852
-1.25064
-1.283
-1.31582
-1.34883
-1.38286
-1.41672
-1.45216
-1.48848
-1.52704
-1.56564
-1.60681
-1.64943
-1.69354
-1.73997
-1.78632
-1.83379
-1.88024
-1.92505
-1.96676
-2.00406
-2.03637
-2.06275
-2.08322
-2.0973
-2.10591
-2.10865
-2.10703
-2.10071
-2.09114
-2.07853
-2.06257
-2.04833
-2.02449
-1.0438
-1.07225
-1.10154
-1.13122
-1.16134
-1.19173
-1.22236
-1.25321
-1.28424
-1.31562
-1.34714
-1.37943
-1.4116
-1.44504
-1.47925
-1.51521
-1.55123
-1.58938
-1.62874
-1.66942
-1.71212
-1.75493
-1.79894
-1.84242
-1.88484
-1.92503
-1.96165
-1.99419
-2.02154
-2.04359
-2.0597
-2.07053
-2.07563
-2.07626
-2.0721
-2.06446
-2.05357
-2.03916
-2.0261
-2.00369
-1.05289
-1.08051
-1.10889
-1.13761
-1.16669
-1.19599
-1.22547
-1.25512
-1.28489
-1.31492
-1.34506
-1.37576
-1.40637
-1.43801
-1.47032
-1.504
-1.53776
-1.57326
-1.60978
-1.64745
-1.68687
-1.72649
-1.76732
-1.8079
-1.84786
-1.88625
-1.92178
-1.95403
-1.98181
-2.00489
-2.02256
-2.03522
-2.04238
-2.04504
-2.04291
-2.03712
-2.02791
-2.01503
-2.00315
-1.98223
-1.06119
-1.088
-1.11549
-1.14325
-1.17131
-1.19955
-1.22793
-1.25643
-1.285
-1.31376
-1.34259
-1.37184
-1.40101
-1.43102
-1.4616
-1.49326
-1.525
-1.55817
-1.5922
-1.62723
-1.66375
-1.70052
-1.73842
-1.77629
-1.81381
-1.85026
-1.88443
-1.91598
-1.94373
-1.96738
-1.98616
-2.00026
-2.00916
-2.01362
-2.01334
-2.00928
-2.0017
-1.99032
-1.97957
-1.9602
-1.06879
-1.09479
-1.1214
-1.14822
-1.17528
-1.20249
-1.2298
-1.25718
-1.28461
-1.31217
-1.33978
-1.36767
-1.3955
-1.42402
-1.45302
-1.48287
-1.5128
-1.54391
-1.57573
-1.60843
-1.64238
-1.67659
-1.71185
-1.74717
-1.78236
-1.81682
-1.84947
-1.88005
-1.90742
-1.93124
-1.95073
-1.9659
-1.97622
-1.98221
-1.9836
-1.98114
-1.97507
-1.96515
-1.95548
-1.93767
-1.07574
-1.10093
-1.12667
-1.15256
-1.17866
-1.20486
-1.23113
-1.25744
-1.28377
-1.3102
-1.33663
-1.36327
-1.38985
-1.41699
-1.44455
-1.47277
-1.50105
-1.53032
-1.56017
-1.59078
-1.62245
-1.65437
-1.68723
-1.72023
-1.7532
-1.7857
-1.81675
-1.84617
-1.87289
-1.89658
-1.91642
-1.93233
-1.94376
-1.95103
-1.95387
-1.95284
-1.94818
-1.93964
-1.931
-1.91475
-1.08208
-1.10648
-1.13136
-1.15635
-1.18149
-1.20671
-1.23198
-1.25726
-1.28253
-1.30787
-1.33319
-1.35866
-1.38406
-1.40993
-1.43614
-1.46288
-1.48967
-1.51728
-1.54537
-1.57411
-1.60373
-1.63359
-1.66429
-1.69515
-1.72606
-1.75666
-1.78609
-1.81425
-1.84014
-1.86343
-1.88334
-1.8997
-1.91194
-1.92024
-1.9243
-1.92454
-1.92116
-1.91392
-1.90622
-1.8915
-1.08788
-1.11149
-1.13553
-1.15962
-1.18383
-1.2081
-1.23239
-1.25667
-1.28093
-1.30522
-1.32949
-1.35385
-1.37814
-1.40281
-1.42779
-1.45317
-1.47859
-1.50469
-1.53118
-1.55824
-1.58603
-1.61404
-1.64277
-1.67168
-1.70067
-1.72947
-1.75732
-1.78416
-1.80909
-1.83179
-1.85155
-1.86808
-1.88089
-1.88997
-1.89505
-1.89638
-1.89414
-1.88808
-1.88126
-1.86801
-1.09316
-1.11599
-1.1392
-1.16241
-1.18572
-1.20906
-1.2324
-1.25572
-1.279
-1.30229
-1.32555
-1.34886
-1.3721
-1.39566
-1.41947
-1.44361
-1.46776
-1.49248
-1.51753
-1.54306
-1.5692
-1.59552
-1.62249
-1.6496
-1.67683
-1.70393
-1.73025
-1.75577
-1.77965
-1.80164
-1.82104
-1.83756
-1.8507
-1.86035
-1.86623
-1.86848
-1.86724
-1.86225
-1.85622
-1.84438
-1.09797
-1.12004
-1.14242
-1.16478
-1.1872
-1.20964
-1.23206
-1.25444
-1.27678
-1.29912
-1.32141
-1.34372
-1.36596
-1.38846
-1.41119
-1.43417
-1.45714
-1.4806
-1.50433
-1.52846
-1.55311
-1.5779
-1.60325
-1.62874
-1.65434
-1.67985
-1.70471
-1.72892
-1.75173
-1.77291
-1.79183
-1.80815
-1.82143
-1.83145
-1.83796
-1.84096
-1.84057
-1.83653
-1.8312
-1.82068
-1.10236
-1.12366
-1.14524
-1.16675
-1.18831
-1.20986
-1.23139
-1.25288
-1.27431
-1.29572
-1.31707
-1.33844
-1.35972
-1.38124
-1.40293
-1.42483
-1.44672
-1.46901
-1.49152
-1.51437
-1.53766
-1.56106
-1.58494
-1.60894
-1.63303
-1.65707
-1.68054
-1.70348
-1.72521
-1.74553
-1.76386
-1.77986
-1.79311
-1.80333
-1.81029
-1.81389
-1.81421
-1.811
-1.80629
-1.79698
-1.10634
-1.12689
-1.14767
-1.16836
-1.18907
-1.20977
-1.23043
-1.25104
-1.27159
-1.29212
-1.31258
-1.33304
-1.35341
-1.37398
-1.39471
-1.4156
-1.43646
-1.45767
-1.47905
-1.50073
-1.52277
-1.54489
-1.56743
-1.59006
-1.61277
-1.63543
-1.6576
-1.67932
-1.69999
-1.71941
-1.73709
-1.75266
-1.76575
-1.77604
-1.7833
-1.78735
-1.78824
-1.78574
-1.78156
-1.77337
-1.10995
-1.12976
-1.14976
-1.16964
-1.18953
-1.20939
-1.22921
-1.24897
-1.26868
-1.28834
-1.30795
-1.32754
-1.34704
-1.36671
-1.38652
-1.40646
-1.42636
-1.44656
-1.4669
-1.48748
-1.50838
-1.52933
-1.55063
-1.572
-1.59343
-1.61483
-1.63577
-1.65633
-1.67596
-1.69448
-1.71146
-1.72653
-1.73936
-1.7496
-1.75702
-1.76139
-1.76274
-1.76083
-1.75709
-1.7499
-1.11323
-1.1323
-1.15152
-1.17061
-1.1897
-1.20875
-1.22775
-1.24669
-1.26557
-1.28441
-1.30319
-1.32195
-1.34061
-1.35943
-1.37837
-1.39742
-1.41641
-1.43567
-1.45503
-1.4746
-1.49443
-1.5143
-1.53446
-1.55467
-1.57493
-1.59514
-1.61494
-1.6344
-1.65302
-1.67066
-1.68691
-1.70143
-1.71392
-1.724
-1.73147
-1.73605
-1.73774
-1.73631
-1.73294
-1.72664
-1.1162
-1.13454
-1.153
-1.17131
-1.18961
-1.20787
-1.22607
-1.24422
-1.2623
-1.28035
-1.29833
-1.31629
-1.33415
-1.35216
-1.37026
-1.38846
-1.40659
-1.42496
-1.44341
-1.46204
-1.48089
-1.49975
-1.51886
-1.538
-1.55716
-1.57628
-1.59501
-1.61343
-1.63109
-1.64786
-1.66337
-1.67732
-1.6894
-1.69925
-1.70668
-1.71136
-1.7133
-1.71225
-1.70916
-1.70363
-1.11889
-1.1365
-1.15422
-1.17176
-1.18929
-1.20677
-1.22421
-1.24158
-1.25889
-1.27617
-1.29337
-1.31057
-1.32766
-1.34489
-1.36219
-1.37959
-1.39691
-1.41445
-1.43204
-1.44978
-1.46772
-1.48564
-1.50378
-1.52192
-1.54007
-1.55817
-1.57589
-1.59334
-1.61007
-1.626
-1.64079
-1.65413
-1.66578
-1.67533
-1.68264
-1.68735
-1.68943
-1.68868
-1.6858
-1.68093
-1.12132
-1.13822
-1.15519
-1.17199
-1.18876
-1.20549
-1.22217
-1.23879
-1.25535
-1.27188
-1.28835
-1.3048
-1.32116
-1.33763
-1.35418
-1.37082
-1.38737
-1.40411
-1.42089
-1.4378
-1.45488
-1.47193
-1.48917
-1.50639
-1.52359
-1.54074
-1.55753
-1.57405
-1.58991
-1.60503
-1.6191
-1.63184
-1.64301
-1.65223
-1.65935
-1.66401
-1.66617
-1.66562
-1.6629
-1.65858
-1.12352
-1.13971
-1.15595
-1.17201
-1.18805
-1.20404
-1.21998
-1.23587
-1.25171
-1.26752
-1.28326
-1.299
-1.31465
-1.33041
-1.34623
-1.36214
-1.37795
-1.39394
-1.40996
-1.42609
-1.44236
-1.45859
-1.47498
-1.49134
-1.50767
-1.52393
-1.53984
-1.5555
-1.57054
-1.58488
-1.59825
-1.61038
-1.62107
-1.62992
-1.63681
-1.64136
-1.64353
-1.64311
-1.64049
-1.63661
-1.1255
-1.14099
-1.15652
-1.17185
-1.18717
-1.20243
-1.21766
-1.23284
-1.24797
-1.26308
-1.27813
-1.29319
-1.30815
-1.32322
-1.33834
-1.35355
-1.36866
-1.38394
-1.39924
-1.41463
-1.43015
-1.44561
-1.4612
-1.47676
-1.49227
-1.5077
-1.52279
-1.53763
-1.55189
-1.56549
-1.57819
-1.58973
-1.59991
-1.60838
-1.615
-1.6194
-1.62152
-1.62117
-1.61858
-1.61506
-1.12729
-1.14208
-1.15691
-1.17153
-1.18614
-1.2007
-1.21523
-1.22972
-1.24417
-1.2586
-1.27297
-1.28737
-1.30166
-1.31607
-1.33053
-1.34507
-1.35951
-1.37411
-1.38872
-1.40341
-1.41821
-1.43295
-1.4478
-1.4626
-1.47734
-1.492
-1.50632
-1.5204
-1.53392
-1.54682
-1.55887
-1.56982
-1.57951
-1.58758
-1.5939
-1.59811
-1.60014
-1.59979
-1.59721
-1.59394
-1.1289
-1.14301
-1.15714
-1.17107
-1.18499
-1.19886
-1.21271
-1.22653
-1.2403
-1.25408
-1.2678
-1.28155
-1.2952
-1.30897
-1.32279
-1.33669
-1.35049
-1.36444
-1.3784
-1.39243
-1.40655
-1.42061
-1.43476
-1.44885
-1.46287
-1.4768
-1.4904
-1.50376
-1.51658
-1.52881
-1.54024
-1.55063
-1.55983
-1.5675
-1.57351
-1.5775
-1.57939
-1.57901
-1.57639
-1.57329
-1.13036
-1.14379
-1.15724
-1.17049
-1.18372
-1.19693
-1.21011
-1.22327
-1.2364
-1.24953
-1.26262
-1.27575
-1.28879
-1.30194
-1.31513
-1.32842
-1.34161
-1.35494
-1.36828
-1.38167
-1.39516
-1.40856
-1.42206
-1.43548
-1.44882
-1.46207
-1.47499
-1.48767
-1.49984
-1.51144
-1.52228
-1.53213
-1.54085
-1.54811
-1.55379
-1.55754
-1.55927
-1.55881
-1.55612
-1.55313
-1.13167
-1.14444
-1.15721
-1.16979
-1.18237
-1.19492
-1.20745
-1.21997
-1.23247
-1.24498
-1.25746
-1.26998
-1.28242
-1.29497
-1.30757
-1.32027
-1.33287
-1.34561
-1.35835
-1.37114
-1.38402
-1.39681
-1.40968
-1.42248
-1.43518
-1.44779
-1.46007
-1.47212
-1.48367
-1.49467
-1.50494
-1.51427
-1.52253
-1.52939
-1.53474
-1.53824
-1.53978
-1.53922
-1.53643
-1.53347
-1.13287
-1.14498
-1.15709
-1.16901
-1.18093
-1.19284
-1.20474
-1.21664
-1.22852
-1.24043
-1.25231
-1.26425
-1.27611
-1.28809
-1.30011
-1.31224
-1.32428
-1.33644
-1.34862
-1.36083
-1.37314
-1.38535
-1.39763
-1.40983
-1.42193
-1.43393
-1.44561
-1.45706
-1.46803
-1.47847
-1.48821
-1.49704
-1.50485
-1.51131
-1.51634
-1.51957
-1.52092
-1.52023
-1.51731
-1.51433
-1.13395
-1.14541
-1.15687
-1.16815
-1.17944
-1.19072
-1.202
-1.21329
-1.22458
-1.23589
-1.2472
-1.25857
-1.26987
-1.28129
-1.29276
-1.30434
-1.31583
-1.32745
-1.33909
-1.35075
-1.3625
-1.37416
-1.38588
-1.39751
-1.40905
-1.42048
-1.4316
-1.44248
-1.4529
-1.46281
-1.47205
-1.48041
-1.48778
-1.49387
-1.49857
-1.50154
-1.50269
-1.50184
-1.49879
-1.49572
-1.13493
-1.14576
-1.15657
-1.16722
-1.17789
-1.18856
-1.19923
-1.20994
-1.22064
-1.23139
-1.24213
-1.25295
-1.2637
-1.27459
-1.28553
-1.29658
-1.30754
-1.31864
-1.32975
-1.34089
-1.35212
-1.36325
-1.37443
-1.38554
-1.39653
-1.40742
-1.41801
-1.42837
-1.43827
-1.44768
-1.45644
-1.46435
-1.47132
-1.47704
-1.48142
-1.48414
-1.48507
-1.48406
-1.48086
-1.47768
-1.13584
-1.14603
-1.15621
-1.16625
-1.17631
-1.18637
-1.19646
-1.20659
-1.21672
-1.22692
-1.23711
-1.2474
-1.25763
-1.26799
-1.27842
-1.28896
-1.29942
-1.31001
-1.32063
-1.33126
-1.34198
-1.35261
-1.36329
-1.37389
-1.38437
-1.39476
-1.40484
-1.4147
-1.42412
-1.43306
-1.44136
-1.44885
-1.45543
-1.46081
-1.46489
-1.46735
-1.46807
-1.46689
-1.46354
-1.46021
-1.13666
-1.14624
-1.1558
-1.16523
-1.1747
-1.18418
-1.1937
-1.20326
-1.21284
-1.2225
-1.23216
-1.24193
-1.25166
-1.26152
-1.27144
-1.28149
-1.29146
-1.30158
-1.31171
-1.32186
-1.3321
-1.34225
-1.35245
-1.36257
-1.37257
-1.38248
-1.39209
-1.40148
-1.41044
-1.41893
-1.42681
-1.43391
-1.44012
-1.44516
-1.44896
-1.45117
-1.45169
-1.45035
-1.44685
-1.44335
-1.13743
-1.14639
-1.15535
-1.16419
-1.17307
-1.18199
-1.19095
-1.19996
-1.20901
-1.21814
-1.22729
-1.23656
-1.24579
-1.25516
-1.26461
-1.27418
-1.28369
-1.29334
-1.30301
-1.3127
-1.32248
-1.33217
-1.34191
-1.35157
-1.36112
-1.37058
-1.37974
-1.38869
-1.39722
-1.40529
-1.41278
-1.4195
-1.42536
-1.4301
-1.43362
-1.43561
-1.43594
-1.43444
-1.43079
-1.42711
-1.13814
-1.1465
-1.15486
-1.16312
-1.17144
-1.1798
-1.18822
-1.1967
-1.20523
-1.21386
-1.22251
-1.23129
-1.24005
-1.24895
-1.25793
-1.26705
-1.2761
-1.2853
-1.29453
-1.30379
-1.31313
-1.32239
-1.33169
-1.34092
-1.35003
-1.35906
-1.3678
-1.37633
-1.38446
-1.39214
-1.39924
-1.40561
-1.41115
-1.4156
-1.41887
-1.42065
-1.4208
-1.41916
-1.41538
-1.41152
-1.1388
-1.14657
-1.15435
-1.16205
-1.16982
-1.17764
-1.18553
-1.1935
-1.20153
-1.20966
-1.21783
-1.22614
-1.23444
-1.24289
-1.25142
-1.2601
-1.26872
-1.27749
-1.2863
-1.29513
-1.30405
-1.31289
-1.32178
-1.3306
-1.3393
-1.34792
-1.35626
-1.3644
-1.37215
-1.37946
-1.38622
-1.39226
-1.3975
-1.40168
-1.40471
-1.4063
-1.4063
-1.40452
-1.40064
-1.39661
-1.13943
-1.14662
-1.15383
-1.16098
-1.16821
-1.17551
-1.18289
-1.19036
-1.1979
-1.20555
-1.21327
-1.22112
-1.22897
-1.23699
-1.24509
-1.25335
-1.26156
-1.26992
-1.27831
-1.28674
-1.29527
-1.30371
-1.3122
-1.32063
-1.32894
-1.33718
-1.34514
-1.35291
-1.36029
-1.36726
-1.37369
-1.37942
-1.38439
-1.38832
-1.39115
-1.39256
-1.39243
-1.39055
-1.38658
-1.38241
-1.14003
-1.14666
-1.15331
-1.15992
-1.16664
-1.17342
-1.18031
-1.1873
-1.19437
-1.20156
-1.20883
-1.21625
-1.22368
-1.23127
-1.23896
-1.24681
-1.25462
-1.26259
-1.2706
-1.27864
-1.28678
-1.29485
-1.30296
-1.31102
-1.31896
-1.32683
-1.33444
-1.34185
-1.3489
-1.35554
-1.36167
-1.36712
-1.37182
-1.37553
-1.37817
-1.37944
-1.37919
-1.37724
-1.37323
-1.36895
-1.14062
-1.14668
-1.15279
-1.15889
-1.1651
-1.17139
-1.1778
-1.18432
-1.19094
-1.1977
-1.20454
-1.21154
-1.21856
-1.22575
-1.23304
-1.24051
-1.24794
-1.25553
-1.26317
-1.27084
-1.27862
-1.28632
-1.29408
-1.30178
-1.30937
-1.3169
-1.32416
-1.33125
-1.33798
-1.34431
-1.35015
-1.35534
-1.35981
-1.36332
-1.36578
-1.36693
-1.3666
-1.36461
-1.36058
-1.35624
-1.14119
-1.14671
-1.15229
-1.15789
-1.16361
-1.16943
-1.17538
-1.18146
-1.18765
-1.19398
-1.20041
-1.20701
-1.21364
-1.22045
-1.22736
-1.23446
-1.24152
-1.24876
-1.25604
-1.26336
-1.27079
-1.27815
-1.28557
-1.29293
-1.30019
-1.30739
-1.31433
-1.32111
-1.32754
-1.33358
-1.33916
-1.3441
-1.34835
-1.35167
-1.354
-1.35504
-1.35466
-1.35265
-1.34867
-1.3443
-1.14176
-1.14675
-1.15182
-1.15693
-1.16219
-1.16756
-1.17306
-1.17872
-1.18449
-1.19042
-1.19646
-1.20268
-1.20894
-1.21538
-1.22193
-1.22868
-1.2354
-1.24229
-1.24923
-1.25622
-1.26332
-1.27035
-1.27744
-1.28448
-1.29143
-1.29832
-1.30496
-1.31144
-1.31758
-1.32336
-1.32868
-1.3334
-1.33745
-1.34061
-1.34281
-1.34377
-1.34337
-1.34138
-1.33748
-1.33315
-1.14233
-1.14682
-1.15139
-1.15604
-1.16085
-1.16579
-1.17087
-1.17612
-1.1815
-1.18705
-1.19272
-1.19858
-1.20448
-1.21057
-1.21679
-1.2232
-1.22959
-1.23615
-1.24278
-1.24944
-1.25623
-1.26295
-1.26973
-1.27647
-1.28311
-1.2897
-1.29605
-1.30225
-1.30813
-1.31366
-1.31874
-1.32324
-1.32711
-1.33012
-1.33222
-1.33313
-1.33272
-1.3308
-1.32702
-1.32279
-1.14292
-1.14692
-1.15103
-1.15523
-1.15961
-1.16414
-1.16883
-1.1737
-1.17871
-1.18389
-1.18921
-1.19472
-1.20029
-1.20606
-1.21195
-1.21804
-1.22411
-1.23037
-1.23669
-1.24305
-1.24954
-1.25596
-1.26244
-1.26889
-1.27524
-1.28155
-1.28763
-1.29357
-1.29919
-1.30448
-1.30934
-1.31365
-1.31735
-1.32022
-1.32223
-1.3231
-1.32272
-1.32088
-1.31727
-1.3132
-1.14353
-1.14707
-1.15073
-1.15452
-1.1585
-1.16265
-1.16696
-1.17147
-1.17613
-1.18098
-1.18596
-1.19115
-1.1964
-1.20186
-1.20744
-1.21323
-1.21901
-1.22496
-1.23099
-1.23706
-1.24326
-1.2494
-1.2556
-1.26177
-1.26785
-1.27389
-1.27971
-1.28539
-1.29077
-1.29583
-1.30048
-1.3046
-1.30814
-1.3109
-1.31283
-1.31368
-1.31334
-1.31163
-1.30823
-1.30435
-1.14418
-1.14728
-1.15053
-1.15393
-1.15754
-1.16133
-1.1653
-1.16947
-1.1738
-1.17833
-1.183
-1.18789
-1.19284
-1.198
-1.20329
-1.2088
-1.21429
-1.21996
-1.22571
-1.2315
-1.23743
-1.24329
-1.24922
-1.25512
-1.26093
-1.26672
-1.27228
-1.27772
-1.28287
-1.28771
-1.29217
-1.29611
-1.29951
-1.30216
-1.30402
-1.30486
-1.30459
-1.30301
-1.29986
-1.29622
-1.14485
-1.14756
-1.15044
-1.15349
-1.15676
-1.16022
-1.16387
-1.16772
-1.17175
-1.17598
-1.18036
-1.18496
-1.18964
-1.19452
-1.19953
-1.20476
-1.20998
-1.21538
-1.22086
-1.22638
-1.23204
-1.23764
-1.24331
-1.24895
-1.25451
-1.26004
-1.26536
-1.27056
-1.27549
-1.28012
-1.28439
-1.28817
-1.29143
-1.29398
-1.29578
-1.29663
-1.29643
-1.29501
-1.29213
-1.28875
-1.14558
-1.14794
-1.15048
-1.15322
-1.15618
-1.15934
-1.16269
-1.16626
-1.17001
-1.17396
-1.17807
-1.1824
-1.18681
-1.19142
-1.19617
-1.20113
-1.20609
-1.21123
-1.21645
-1.22172
-1.22711
-1.23246
-1.23787
-1.24326
-1.24857
-1.25385
-1.25895
-1.26392
-1.26863
-1.27306
-1.27714
-1.28076
-1.28389
-1.28635
-1.28811
-1.28896
-1.28884
-1.28758
-1.28499
-1.2819
-1.14634
-1.14841
-1.15066
-1.15313
-1.15582
-1.15871
-1.1618
-1.16511
-1.1686
-1.17229
-1.17614
-1.18022
-1.18437
-1.18873
-1.19322
-1.19793
-1.20263
-1.20752
-1.21248
-1.2175
-1.22264
-1.22773
-1.2329
-1.23804
-1.24311
-1.24815
-1.25302
-1.25776
-1.26227
-1.2665
-1.27041
-1.27388
-1.27688
-1.27925
-1.28096
-1.28184
-1.28179
-1.28071
-1.2784
-1.2756
-1.14715
-1.14898
-1.151
-1.15323
-1.15569
-1.15834
-1.1612
-1.16427
-1.16752
-1.17097
-1.17458
-1.17841
-1.18233
-1.18644
-1.19069
-1.19514
-1.1996
-1.20424
-1.20895
-1.21372
-1.21861
-1.22346
-1.22838
-1.23328
-1.23811
-1.24292
-1.24756
-1.25209
-1.25639
-1.26044
-1.26417
-1.26749
-1.27037
-1.27266
-1.27433
-1.27522
-1.27526
-1.27434
-1.27231
-1.26978
-1.14801
-1.14965
-1.15148
-1.15353
-1.15579
-1.15824
-1.16089
-1.16374
-1.16677
-1.17
-1.17338
-1.17698
-1.18066
-1.18454
-1.18854
-1.19275
-1.19697
-1.20136
-1.20583
-1.21036
-1.215
-1.21961
-1.22429
-1.22895
-1.23355
-1.23813
-1.24255
-1.24687
-1.25097
-1.25484
-1.2584
-1.26158
-1.26434
-1.26656
-1.26818
-1.26908
-1.2692
-1.26843
-1.26667
-1.26439
-1.14889
-1.15041
-1.15211
-1.154
-1.1561
-1.15837
-1.16084
-1.1635
-1.16633
-1.16935
-1.17251
-1.17589
-1.17935
-1.183
-1.18677
-1.19073
-1.19473
-1.19888
-1.2031
-1.20739
-1.21179
-1.21617
-1.2206
-1.22503
-1.22941
-1.23376
-1.23797
-1.24208
-1.24599
-1.24967
-1.25308
-1.25612
-1.25877
-1.2609
-1.26249
-1.2634
-1.26359
-1.26296
-1.26143
-1.25938
-1.14981
-1.15125
-1.15284
-1.15462
-1.15659
-1.15872
-1.16102
-1.16351
-1.16615
-1.16898
-1.17194
-1.1751
-1.17835
-1.18178
-1.18533
-1.18905
-1.19282
-1.19673
-1.20073
-1.20478
-1.20894
-1.21309
-1.21729
-1.22149
-1.22564
-1.22977
-1.23378
-1.23768
-1.24141
-1.24491
-1.24816
-1.25107
-1.25361
-1.25567
-1.25721
-1.25813
-1.25838
-1.25787
-1.25656
-1.2547
-1.15073
-1.15213
-1.15366
-1.15536
-1.15721
-1.15922
-1.16139
-1.16372
-1.16619
-1.16884
-1.17162
-1.17457
-1.17762
-1.18084
-1.18417
-1.18767
-1.19121
-1.1949
-1.19866
-1.20249
-1.20641
-1.21034
-1.21431
-1.21829
-1.22223
-1.22614
-1.22995
-1.23366
-1.2372
-1.24054
-1.24363
-1.24641
-1.24884
-1.25083
-1.25233
-1.25326
-1.25355
-1.25315
-1.25201
-1.25032
-1.15167
-1.15304
-1.15454
-1.15616
-1.15793
-1.15984
-1.16188
-1.16407
-1.1664
-1.16888
-1.17148
-1.17425
-1.17711
-1.18012
-1.18325
-1.18652
-1.18986
-1.19332
-1.19686
-1.20047
-1.20417
-1.20788
-1.21163
-1.21539
-1.21913
-1.22283
-1.22644
-1.22997
-1.23333
-1.23651
-1.23946
-1.24212
-1.24445
-1.24636
-1.24782
-1.24874
-1.24908
-1.24877
-1.24777
-1.2462
-1.15259
-1.15396
-1.15543
-1.15701
-1.1587
-1.16052
-1.16245
-1.16452
-1.16671
-1.16903
-1.17148
-1.17407
-1.17675
-1.17958
-1.18251
-1.18558
-1.18871
-1.19196
-1.1953
-1.1987
-1.20218
-1.20568
-1.20922
-1.21278
-1.21631
-1.21982
-1.22324
-1.22658
-1.22978
-1.23281
-1.23562
-1.23816
-1.24038
-1.24223
-1.24365
-1.24456
-1.24493
-1.24469
-1.24381
-1.24235
-1.1535
-1.15487
-1.15631
-1.15785
-1.15948
-1.16121
-1.16305
-1.16501
-1.16708
-1.16926
-1.17156
-1.17399
-1.17651
-1.17916
-1.18191
-1.18479
-1.18773
-1.19079
-1.19392
-1.19712
-1.2004
-1.2037
-1.20705
-1.21041
-1.21375
-1.21707
-1.22032
-1.22348
-1.22652
-1.2294
-1.23208
-1.2345
-1.23664
-1.23841
-1.23979
-1.2407
-1.24109
-1.24091
-1.24012
-1.23874
-1.1544
-1.15575
-1.15717
-1.15866
-1.16023
-1.1619
-1.16365
-1.16551
-1.16746
-1.16953
-1.17169
-1.17397
-1.17634
-1.17883
-1.18142
-1.18412
-1.18689
-1.18976
-1.19271
-1.19572
-1.19881
-1.20192
-1.20508
-1.20826
-1.21142
-1.21456
-1.21764
-1.22064
-1.22353
-1.22627
-1.22882
-1.23114
-1.23319
-1.2349
-1.23623
-1.23713
-1.23754
-1.2374
-1.2367
-1.23538
-1.15527
-1.1566
-1.15799
-1.15943
-1.16095
-1.16254
-1.16422
-1.16599
-1.16784
-1.1698
-1.17184
-1.17399
-1.17622
-1.17856
-1.181
-1.18354
-1.18614
-1.18885
-1.19162
-1.19447
-1.19737
-1.20032
-1.2033
-1.2063
-1.20929
-1.21227
-1.21519
-1.21804
-1.22079
-1.22339
-1.22583
-1.22804
-1.23001
-1.23166
-1.23295
-1.23384
-1.23426
-1.23417
-1.23353
-1.23227
-1.15611
-1.15741
-1.15875
-1.16015
-1.16162
-1.16315
-1.16475
-1.16644
-1.1682
-1.17005
-1.17199
-1.17402
-1.17613
-1.17834
-1.18064
-1.18303
-1.18549
-1.18804
-1.19065
-1.19334
-1.19608
-1.19886
-1.20168
-1.20452
-1.20735
-1.21018
-1.21295
-1.21566
-1.21827
-1.22075
-1.22308
-1.2252
-1.22708
-1.22868
-1.22994
-1.23081
-1.23125
-1.23119
-1.23061
-1.22941
-1.15691
-1.15818
-1.15948
-1.16083
-1.16224
-1.16371
-1.16524
-1.16685
-1.16853
-1.17029
-1.17213
-1.17406
-1.17606
-1.17815
-1.18032
-1.18257
-1.1849
-1.18731
-1.18978
-1.19232
-1.19491
-1.19754
-1.20021
-1.2029
-1.20559
-1.20826
-1.2109
-1.21348
-1.21596
-1.21833
-1.22056
-1.22259
-1.2244
-1.22594
-1.22717
-1.22803
-1.22849
-1.22847
-1.22794
-1.22681
-1.15769
-1.15891
-1.16016
-1.16146
-1.16281
-1.16422
-1.1657
-1.16723
-1.16884
-1.17052
-1.17226
-1.17409
-1.17599
-1.17797
-1.18003
-1.18217
-1.18437
-1.18665
-1.18899
-1.19139
-1.19385
-1.19634
-1.19888
-1.20142
-1.20398
-1.20652
-1.20903
-1.21148
-1.21385
-1.21612
-1.21825
-1.2202
-1.22195
-1.22344
-1.22464
-1.2255
-1.22596
-1.22598
-1.22551
-1.22446
-1.15844
-1.1596
-1.16081
-1.16205
-1.16335
-1.1647
-1.16611
-1.16759
-1.16912
-1.17072
-1.17239
-1.17413
-1.17594
-1.17782
-1.17977
-1.1818
-1.18389
-1.18606
-1.18828
-1.19056
-1.19289
-1.19526
-1.19766
-1.20008
-1.20251
-1.20493
-1.20732
-1.20966
-1.21193
-1.2141
-1.21614
-1.21802
-1.21971
-1.22116
-1.22233
-1.22319
-1.22367
-1.22373
-1.22332
-1.22235
-1.15915
-1.16026
-1.16142
-1.16261
-1.16386
-1.16516
-1.16651
-1.16791
-1.16938
-1.17091
-1.1725
-1.17417
-1.17589
-1.17768
-1.17954
-1.18147
-1.18346
-1.18552
-1.18763
-1.1898
-1.19201
-1.19427
-1.19655
-1.19886
-1.20117
-1.20348
-1.20576
-1.208
-1.21017