/*--------------------------------*- C++ -*----------------------------------*\
| =========                 |                                                 |
| \\      /  F ield         | OpenFOAM: The Open Source CFD Toolbox           |
|  \\    /   O peration     | Version:  5.x                                   |
|   \\  /    A nd           | Web:      www.OpenFOAM.org                      |
|    \\/     M anipulation  |                                                 |
\*---------------------------------------------------------------------------*/
FoamFile
{
    version     2.0;
    format      ascii;
    class       surfaceScalarField;
    location    "100";
    object      phi;
}
// * * * * * * * * * * * * * * * * * * * * * * * * * * * * * * * * * * * * * //

dimensions      [0 3 -1 0 0 0 0];

internalField   nonuniform List<scalar> 
51690
(
0.000503387
-9.87937e-05
-0.000404352
0.000497654
5.72566e-06
0.000445431
5.22012e-05
0.000381273
6.41389e-05
0.000322952
5.83015e-05
0.000273924
4.90225e-05
0.00023883
3.50904e-05
0.000212587
2.62432e-05
0.000196404
1.61846e-05
0.000186662
9.7435e-06
0.000181787
4.87721e-06
0.000181632
1.56358e-07
0.000174689
6.94433e-06
0.000176229
-1.53688e-06
0.000179178
-2.94634e-06
0.000182137
-2.95594e-06
0.00018548
-3.34033e-06
0.000189977
-4.49335e-06
0.000195609
-5.62827e-06
0.000201831
-6.21737e-06
0.000209581
-7.74616e-06
0.000218229
-8.64346e-06
0.000228379
-1.01453e-05
0.000239439
-1.10542e-05
0.000250581
-1.11366e-05
0.00026192
-1.1334e-05
0.000272898
-1.09741e-05
0.000283886
-1.09834e-05
0.00029462
-1.07304e-05
0.000305206
-1.05827e-05
0.000315588
-1.03788e-05
0.000325609
-1.00194e-05
0.000335419
-9.80599e-06
0.000344656
-9.2362e-06
0.000353487
-8.82709e-06
0.000361471
-7.9854e-06
0.000368746
-7.27163e-06
0.000374891
-6.14922e-06
0.000378202
-3.30729e-06
-5.28495e-06
0.000383481
0.000284267
-0.000174438
-0.000208613
0.000351125
-6.11349e-05
0.000390394
1.29277e-05
0.000397639
5.68845e-05
0.000381778
7.41582e-05
0.000353466
7.73291e-05
0.000321803
6.6751e-05
0.000292936
5.51092e-05
0.000269236
3.98851e-05
0.000252392
2.65884e-05
0.000241031
1.62395e-05
0.000236389
4.79905e-06
0.000232078
1.12572e-05
0.000230575
-3.31065e-08
0.000231004
-3.37227e-06
0.000234122
-6.07298e-06
0.00023802
-7.23565e-06
0.000243355
-9.82717e-06
0.000249715
-1.19858e-05
0.000256564
-1.3064e-05
0.0002647
-1.588e-05
0.000272957
-1.68979e-05
0.000281838
-1.90238e-05
0.000291522
-2.07358e-05
0.000301826
-2.14375e-05
0.00031304
-2.25456e-05
0.000324251
-2.21838e-05
0.000335695
-2.24254e-05
0.000347076
-2.21098e-05
0.000358428
-2.1933e-05
0.000369731
-2.16816e-05
0.000380682
-2.09697e-05
0.000391431
-2.05547e-05
0.000401545
-1.93512e-05
0.000411225
-1.85066e-05
0.000420026
-1.67888e-05
0.000428066
-1.53105e-05
0.000434955
-1.30431e-05
0.000439229
-7.58053e-06
-1.18205e-05
0.000445759
0.000217385
-0.000223287
-0.000168529
0.000273141
-0.000116891
0.000326051
-3.99843e-05
0.000365353
1.75809e-05
0.000384253
5.52554e-05
0.000383999
7.7581e-05
0.000369265
8.14814e-05
0.000347544
7.6829e-05
0.000323962
6.34669e-05
0.00030382
4.6731e-05
0.000288033
3.20271e-05
0.000278906
1.39268e-05
0.000271851
1.83133e-05
0.00026766
4.15966e-06
0.000265989
-1.70051e-06
0.000268118
-8.20047e-06
0.000271166
-1.02819e-05
0.000275991
-1.46506e-05
0.000282108
-1.81011e-05
0.000288947
-1.99019e-05
0.000297439
-2.43699e-05
0.000306276
-2.57322e-05
0.000315902
-2.86482e-05
0.000326185
-3.10162e-05
0.000336887
-3.21373e-05
0.000348592
-3.42481e-05
0.000360413
-3.40025e-05
0.000372638
-3.46481e-05
0.000384859
-3.43285e-05
0.000397043
-3.41151e-05
0.000409197
-3.38329e-05
0.000420963
-3.2734e-05
0.000432537
-3.21263e-05
0.000443422
-3.02352e-05
0.000453849
-2.89316e-05
0.000463351
-2.62903e-05
0.000472063
-2.40205e-05
0.000479594
-2.05755e-05
0.000484608
-1.25922e-05
-1.80106e-05
0.000490795
0.000183872
-0.000259594
-0.000147562
0.000226396
-0.000159414
0.000273235
-8.68228e-05
0.000319407
-2.85918e-05
0.00035652
1.81417e-05
0.000379707
5.4392e-05
0.00038705
7.41379e-05
0.000381222
8.2654e-05
0.000366377
7.83119e-05
0.000348875
6.42319e-05
0.000332121
4.87815e-05
0.0003204
2.5649e-05
0.000310779
2.79342e-05
0.000304028
1.09114e-05
0.000300168
2.16134e-06
0.000300934
-8.96445e-06
0.000303035
-1.23816e-05
0.000307251
-1.88649e-05
0.000312956
-2.38044e-05
0.000319527
-2.64715e-05
0.000327964
-3.28048e-05
0.000336884
-3.46512e-05
0.000346767
-3.85292e-05
0.000357387
-4.16341e-05
0.000368438
-4.31874e-05
0.000380576
-4.63838e-05
0.000392914
-4.63393e-05
0.000405777
-4.75095e-05
0.000418705
-4.72554e-05
0.000431621
-4.70304e-05
0.000444523
-4.67346e-05
0.000457025
-4.52355e-05
0.000469333
-4.44336e-05
0.00048092
-4.18229e-05
0.000492022
-4.00333e-05
0.000502137
-3.64066e-05
0.000511393
-3.32767e-05
0.000519388
-2.85734e-05
0.000524902
-1.81061e-05
-2.4335e-05
0.000531224
0.000163249
-0.000289109
-0.000133732
0.000197249
-0.000193414
0.000236008
-0.000125581
0.000278689
-7.12723e-05
0.000320418
-2.35877e-05
0.00035631
1.84999e-05
0.000381533
4.89134e-05
0.000393742
7.04445e-05
0.000393525
7.85258e-05
0.000384978
7.27788e-05
0.000372157
6.16027e-05
0.000360745
3.70603e-05
0.000349958
3.87218e-05
0.000341212
1.96569e-05
0.000335198
8.17642e-06
0.00033431
-8.07466e-06
0.00033517
-1.32402e-05
0.000338551
-2.22443e-05
0.000343679
-2.89319e-05
0.000349838
-3.26286e-05
0.000358077
-4.10424e-05
0.00036694
-4.35134e-05
0.000376938
-4.85258e-05
0.000387789
-5.24832e-05
0.000399117
-5.45139e-05
0.000411606
-5.88709e-05
0.000424354
-5.90856e-05
0.000437726
-6.08809e-05
0.000451247
-6.07742e-05
0.000464814
-6.05962e-05
0.000478416
-6.03353e-05
0.000491637
-5.84549e-05
0.00050468
-5.74756e-05
0.000516992
-5.41337e-05
0.0005288
-5.184e-05
0.000539569
-4.71747e-05
0.000549409
-4.31157e-05
0.000557895
-3.70597e-05
0.000563851
-2.40605e-05
-3.09109e-05
0.000570426
0.000150203
-0.000314597
-0.000124714
0.000178903
-0.000222114
0.000211428
-0.000158106
0.000248444
-0.000108288
0.000287982
-6.31247e-05
0.000327369
-2.08881e-05
0.000362451
1.38316e-05
0.000388811
4.40826e-05
0.000404031
6.33052e-05
0.00040841
6.83984e-05
0.00040447
6.55427e-05
0.000397398
4.41323e-05
0.000388227
4.78917e-05
0.000379068
2.88158e-05
0.00037162
1.56251e-05
0.000369191
-5.6441e-06
0.000368696
-1.27437e-05
0.000371083
-2.46298e-05
0.000375515
-3.33631e-05
0.000381174
-3.82855e-05
0.000389134
-4.90016e-05
0.00039786
-5.22373e-05
0.000407893
-5.85572e-05
0.000418912
-6.35014e-05
0.000430475
-6.60754e-05
0.000443277
-7.16714e-05
0.000456389
-7.21964e-05
0.000470217
-7.47077e-05
0.000484268
-7.4825e-05
0.000498425
-7.47519e-05
0.000512663
-7.45728e-05
0.000526539
-7.23308e-05
0.00054026
-7.11959e-05
0.000553246
-6.71194e-05
0.000565724
-6.43184e-05
0.000577132
-5.85832e-05
0.000587566
-5.35495e-05
0.000596563
-4.60588e-05
0.000602953
-3.04512e-05
-3.77769e-05
0.000609818
0.000141955
-0.000337629
-0.000118922
0.000167313
-0.000247472
0.00019556
-0.000186352
0.000227649
-0.000140376
0.000263053
-9.85284e-05
0.000300933
-5.87679e-05
0.000338992
-2.42274e-05
0.000373304
9.77063e-06
0.000400494
3.61134e-05
0.000417931
5.09615e-05
0.000425711
5.77624e-05
0.00042674
4.31025e-05
0.000422795
5.18361e-05
0.000415964
3.56467e-05
0.000408789
2.28006e-05
0.00040557
-2.42364e-06
0.00040399
-1.1162e-05
0.000405392
-2.6031e-05
0.000409063
-3.7032e-05
0.000414156
-4.33774e-05
0.000421779
-5.66243e-05
0.000430311
-6.07677e-05
0.000440318
-6.85628e-05
0.000451454
-7.46365e-05
0.000463219
-7.78396e-05
0.000476315
-8.47663e-05
0.000489773
-8.5653e-05
0.000504031
-8.89648e-05
0.000518584
-8.93775e-05
0.000533301
-8.94673e-05
0.000548145
-8.94161e-05
0.000562644
-8.68294e-05
0.000577004
-8.55546e-05
0.000590616
-8.07306e-05
0.000603713
-7.74141e-05
0.00061571
-7.05792e-05
0.000626696
-6.45344e-05
0.000636179
-5.55428e-05
0.000642978
-3.72488e-05
-4.49399e-05
0.000650141
0.000136955
-0.00035916
-0.000115424
0.000160214
-0.00027073
0.000185653
-0.000211791
0.000214136
-0.000168858
0.000245669
-0.000130062
0.000280357
-9.34549e-05
0.00031741
-6.12804e-05
0.000354329
-2.71489e-05
0.000388393
2.04941e-06
0.000415896
2.34581e-05
0.000435133
3.85254e-05
0.000446191
3.20434e-05
0.000450544
4.7483e-05
0.00044926
3.69298e-05
0.000444949
2.71132e-05
0.000442483
4.32722e-08
0.000440685
-9.36339e-06
0.000441469
-2.68133e-05
0.000444498
-4.00599e-05
0.000449057
-4.79352e-05
0.000456339
-6.39047e-05
0.000464664
-6.90917e-05
0.000474619
-7.85174e-05
0.000485845
-8.58607e-05
0.000497795
-8.97888e-05
0.000511176
-9.81458e-05
0.000524969
-9.94449e-05
0.000539641
-0.000103636
0.000554673
-0.000104409
0.000569925
-0.000104718
0.000585353
-0.000104844
0.000600457
-0.000101932
0.000615436
-0.000100533
0.000629647
-9.49419e-05
0.000643324
-9.10914e-05
0.00065586
-8.31153e-05
0.000667345
-7.60196e-05
0.000677264
-6.54628e-05
0.000684416
-4.44013e-05
-5.23819e-05
0.000691856
0.0001343
-0.000379808
-0.000113652
0.000156277
-0.000292707
0.00017994
-0.000235455
0.00020599
-0.000194907
0.000234574
-0.000158646
0.000266123
-0.000125004
0.000300672
-9.58298e-05
0.000336982
-6.34584e-05
0.00037351
-3.44792e-05
0.000406938
-9.96936e-06
0.000434976
1.04869e-05
0.000455598
1.1421e-05
0.000469558
3.3522e-05
0.000476353
3.01351e-05
0.000477712
2.57541e-05
0.00047817
-4.142e-07
0.000477709
-8.90079e-06
0.00047877
-2.78735e-05
0.000481623
-4.29122e-05
0.000485879
-5.219e-05
0.000492914
-7.09389e-05
0.000501081
-7.72573e-05
0.000511004
-8.84394e-05
0.000522322
-9.71785e-05
0.000534461
-0.000101927
0.000548132
-0.000111816
0.000562268
-0.000113579
0.000577354
-0.000118722
0.000592857
-0.000119911
0.000608631
-0.000120492
0.000624627
-0.000120839
0.000640314
-0.000117618
0.000655892
-0.00011611
0.000670682
-0.000109732
0.000684915
-0.000105324
0.000697953
-9.61532e-05
0.000709888
-8.79539e-05
0.000720185
-7.57593e-05
0.000727621
-5.18365e-05
-6.00571e-05
0.000735296
0.000133415
-0.000399993
-0.00011323
0.000154667
-0.000313958
0.000177272
-0.000258059
0.000201782
-0.000219417
0.000228351
-0.000185216
0.00025745
-0.000154102
0.000289433
-0.000127814
0.000323837
-9.78616e-05
0.000360101
-7.07435e-05
0.000395879
-4.57469e-05
0.00042923
-2.28641e-05
0.000457209
-1.65592e-05
0.000480044
1.06877e-05
0.000495848
1.43297e-05
0.00050495
1.66526e-05
0.000510556
-6.02009e-06
0.000513431
-1.17757e-05
0.000516206
-3.0648e-05
0.0005198
-4.65053e-05
0.000524299
-5.66878e-05
0.000531371
-7.80104e-05
0.000539547
-8.54322e-05
0.000549532
-9.84237e-05
0.000560999
-0.000108645
0.000573363
-0.00011429
0.000587353
-0.000125805
0.000601854
-0.00012808
0.00061737
-0.000134237
0.000633352
-0.000135892
0.000649649
-0.000136788
0.000666207
-0.000137397
0.000682467
-0.000133877
0.000698628
-0.000132271
0.000713976
-0.000125079
0.000728741
-0.000120089
0.000742253
-0.000109665
0.000754599
-0.0001003
0.00076522
-8.63814e-05
0.00077287
-5.94872e-05
-6.79108e-05
0.000780723
0.000133918
-0.000420015
-0.000113896
0.000154835
-0.000334876
0.000176887
-0.00028011
0.000200508
-0.000243037
0.000225825
-0.000210533
0.000253246
-0.000181523
0.000283193
-0.00015776
0.000315572
-0.000130241
0.00035041
-0.000105581
0.000386284
-8.16205e-05
0.000421958
-5.85384e-05
0.000454538
-4.9139e-05
0.000484129
-1.8904e-05
0.000508159
-9.70091e-06
0.000525669
-8.57271e-07
0.000537987
-1.8339e-05
0.000546111
-1.98999e-05
0.000552321
-3.68577e-05
0.000557978
-5.21619e-05
0.000563643
-6.23523e-05
0.000571309
-8.56756e-05
0.00057985
-9.39723e-05
0.000590113
-0.000108686
0.000601863
-0.000120394
0.000614545
-0.000126971
0.000628916
-0.000140176
0.000643836
-0.000142999
0.000659821
-0.00015022
0.000676307
-0.000152378
0.000693142
-0.000153622
0.000710269
-0.000154523
0.000727102
-0.00015071
0.000743841
-0.000149009
0.000759733
-0.000140971
0.00077501
-0.000135365
0.000788967
-0.000123622
0.000801689
-0.000113021
0.000812588
-9.72808e-05
0.000820386
-6.72838e-05
-7.58788e-05
0.000828354
0.000135545
-0.000440097
-0.000115463
0.000156413
-0.000355744
0.000178274
-0.000301971
0.000201477
-0.00026624
0.000226118
-0.000235174
0.000252528
-0.000207932
0.00028109
-0.000186322
0.000311854
-0.000161005
0.000345104
-0.000138831
0.000380067
-0.000116583
0.000416151
-9.46226e-05
0.000450994
-8.39822e-05
0.000484865
-5.27745e-05
0.000515225
-4.0062e-05
0.000540383
-2.60152e-05
0.000559874
-3.78307e-05
0.000574497
-3.45242e-05
0.0005857
-4.8061e-05
0.000594903
-6.13648e-05
0.000602958
-7.04062e-05
0.000612066
-9.47835e-05
0.000621564
-0.00010347
0.000632488
-0.000119609
0.000644773
-0.000132678
0.000657948
-0.000140145
0.000672819
-0.000155047
0.00068825
-0.00015843
0.000704771
-0.000166741
0.000721814
-0.00016942
0.000739223
-0.00017103
0.000756942
-0.000172241
0.000774362
-0.000168129
0.000791683
-0.000166329
0.000808117
-0.000157405
0.000823892
-0.00015114
0.000838272
-0.000138002
0.000851337
-0.000126086
0.000862473
-0.000108418
0.000870358
-7.51692e-05
-8.38995e-05
0.000878378
0.000138111
-0.000460411
-0.000117797
0.000159146
-0.000376779
0.000181085
-0.000323909
0.000204215
-0.00028937
0.000228609
-0.000259568
0.000254528
-0.000233851
0.000282293
-0.000214088
0.000311989
-0.0001907
0.000343969
-0.000170811
0.000377838
-0.000150452
0.00041344
-0.000130224
0.000449036
-0.000119578
0.00048513
-8.88692e-05
0.000519662
-7.45937e-05
0.000550812
-5.7166e-05
0.00057687
-6.38891e-05
0.000598278
-5.59331e-05
0.000615445
-6.52281e-05
0.000629469
-7.53882e-05
0.0006412
-8.21372e-05
0.000652799
-0.000106382
0.000664071
-0.000114742
0.000676234
-0.000131771
0.000689455
-0.000145898
0.000703407
-0.000154096
0.000718972
-0.000170611
0.000735062
-0.00017452
0.00075223
-0.000183908
0.000769914
-0.000187103
0.000787961
-0.000189076
0.000806317
-0.000190597
0.000824356
-0.000186168
0.000842277
-0.00018425
0.00085926
-0.000174388
0.000875531
-0.00016741
0.000890319
-0.00015279
0.0009037
-0.000139466
0.000915035
-0.000119753
0.000922954
-8.30867e-05
-9.19083e-05
0.000930963
0.000141486
-0.000481094
-0.000120802
0.000162856
-0.000398149
0.000185079
-0.000346132
0.000208395
-0.000312687
0.000232862
-0.000284035
0.000258687
-0.000259676
0.00028613
-0.000241531
0.000315271
-0.000219841
0.000346446
-0.000201986
0.000379458
-0.000183464
0.00041438
-0.000165146
0.000449999
-0.000155198
0.00048699
-0.00012586
0.000523897
-0.000111501
0.000559177
-9.24457e-05
0.000590538
-9.52511e-05
0.000618139
-8.35344e-05
0.000641459
-8.85489e-05
0.000661058
-9.49874e-05
0.000677523
-9.86017e-05
0.000692668
-0.000121526
0.000706657
-0.000128731
0.0007208
-0.000145914
0.00073551
-0.000160608
0.00075065
-0.000169236
0.000767199
-0.000187159
0.000784169
-0.00019149
0.000802147
-0.000201886
0.000820598
-0.000205553
0.00083938
-0.000207857
0.000858445
-0.000209662
0.000877156
-0.000204879
0.000895714
-0.000202807
0.000913271
-0.000191945
0.000930046
-0.000184185
0.000945239
-0.000167982
0.000958918
-0.000153146
0.00097042
-0.000131255
0.000978325
-9.09917e-05
-9.98478e-05
0.000986264
0.000145574
-0.000502263
-0.000124405
0.000167417
-0.000419992
0.000190087
-0.000368802
0.000213791
-0.000336391
0.000238576
-0.000308819
0.000264607
-0.000285707
0.000292098
-0.000269022
0.000321111
-0.000248854
0.000351938
-0.000232814
0.000384473
-0.000215999
0.000418887
-0.000199559
0.000454344
-0.000190656
0.000491583
-0.000163099
0.000529683
-0.0001496
0.000567526
-0.000130289
0.000602771
-0.000130497
0.000635452
-0.000116216
0.000664433
-0.00011753
0.000689726
-0.000120282
0.000711522
-0.000120397
0.000731054
-0.000141059
0.000748663
-0.00014634
0.000765599
-0.00016285
0.000782466
-0.000177475
0.000799324
-0.000186093
0.000817247
-0.000205081
0.0008354
-0.000209642
0.000854416
-0.000220901
0.000873811
-0.000224948
0.000893465
-0.00022751
0.000913344
-0.000229541
0.000932809
-0.000224343
0.000952061
-0.000222059
0.000970232
-0.000210115
0.000987538
-0.00020149
0.00100314
-0.000183589
0.00101712
-0.000167116
0.00102876
-0.0001429
0.00103661
-9.88413e-05
-0.00010766
0.00104442
0.000150307
-0.000524015
-0.000128554
0.000172738
-0.000442423
0.00019599
-0.000392055
0.000220244
-0.000360645
0.000245538
-0.000334113
0.00027201
-0.000312179
0.000299834
-0.000296846
0.000329059
-0.000278079
0.000359929
-0.000263683
0.000392378
-0.000248448
0.000426599
-0.00023378
0.00046201
-0.000226066
0.000499326
-0.000200416
0.000538015
-0.000188289
0.000577362
-0.000169635
0.00061528
-0.000168416
0.000651816
-0.000152752
0.000685563
-0.000151278
0.000716134
-0.000150853
0.000743334
-0.000147597
0.000767728
-0.000165453
0.000789652
-0.000168263
0.000810133
-0.000183331
0.000829857
-0.000197198
0.000849038
-0.000205274
0.000868813
-0.000224856
0.000888532
-0.000229361
0.000908882
-0.00024125
0.000929454
-0.000245519
0.000950162
-0.000248218
0.000970997
-0.000250376
0.000991328
-0.000244673
0.00101136
-0.00024209
0.00103021
-0.000228964
0.00104809
-0.000219367
0.00106413
-0.000199635
0.0010784
-0.000181383
0.00109018
-0.000154677
0.00109794
-0.000106608
-0.000115296
0.00110558
0.000155636
-0.000546439
-0.000133213
0.000178756
-0.000465543
0.000202705
-0.000416004
0.000227642
-0.000385581
0.000253602
-0.000360073
0.000280701
-0.000339278
0.000309085
-0.00032523
0.00033879
-0.000307784
0.000370019
-0.000294912
0.000402726
-0.000281155
0.000437093
-0.000268147
0.000472699
-0.000261672
0.000510192
-0.000237908
0.000549285
-0.000227382
0.000589567
-0.000209918
0.000629318
-0.000208167
0.000668661
-0.000192096
0.000706193
-0.00018881
0.000741314
-0.000185976
0.000773562
-0.000179845
0.00080289
-0.000194782
0.000829509
-0.000194882
0.000854105
-0.000207926
0.000877316
-0.00022041
0.000899431
-0.000227387
0.000921583
-0.000247008
0.000943315
-0.000251092
0.000965355
-0.000263291
0.000987393
-0.000267556
0.00100939
-0.000270211
0.00103136
-0.000272349
0.0010527
-0.000266016
0.00107363
-0.000263013
0.00109324
-0.000248579
0.00111175
-0.000237878
0.00112828
-0.000216164
0.00114287
-0.000195968
0.00115478
-0.000166585
0.00116244
-0.00011427
-0.000122709
0.00116985
0.000161529
-0.000569613
-0.000138354
0.000185426
-0.00048944
0.000210173
-0.00044075
0.000235908
-0.000411317
0.000262667
-0.000386832
0.000290547
-0.000367159
0.000319673
-0.000354356
0.000350073
-0.000338184
0.000381917
-0.000326756
0.00041517
-0.000314408
0.000449989
-0.000302966
0.000486061
-0.000297744
0.000523947
-0.000275794
0.000563505
-0.000266939
0.00060452
-0.000250933
0.000645629
-0.000249276
0.000687041
-0.000233508
0.000727509
-0.000229279
0.000766386
-0.000224853
0.00080308
-0.00021654
0.000837091
-0.000228793
0.000868459
-0.00022625
0.000897487
-0.000236954
0.000924659
-0.000247582
0.000950244
-0.000252972
0.000975291
-0.000272055
0.000999507
-0.000275308
0.00102364
-0.000287422
0.00104748
-0.000291392
0.00107103
-0.000293766
0.00109437
-0.000295682
0.0011169
-0.000288552
0.00113886
-0.00028497
0.00115936
-0.000269075
0.00117859
-0.000257109
0.00119566
-0.000233236
0.0012106
-0.000210909
0.00122266
-0.00017864
0.00123021
-0.000121827
-0.000129865
0.00123737
0.000167961
-0.000593613
-0.000143961
0.000192719
-0.000514198
0.000218354
-0.000466385
0.00024499
-0.000437953
0.000272662
-0.000414503
0.000301454
-0.000395951
0.000331475
-0.000384377
0.000362748
-0.000369457
0.000395416
-0.000359423
0.00042945
-0.000348442
0.000464986
-0.000338502
0.00050178
-0.000334539
0.00054031
-0.000314323
0.000580508
-0.000307138
0.000622279
-0.000292704
0.000664554
-0.000291551
0.000707606
-0.00027656
0.000750398
-0.00027207
0.000792335
-0.000266792
0.000832819
-0.000257024
0.000871071
-0.000267046
0.000906985
-0.000262164
0.000940509
-0.000270478
0.000971912
-0.000278985
0.00100137
-0.000282429
0.00102976
-0.000300449
0.00105692
-0.00030246
0.00108355
-0.000314058
0.00110955
-0.000317393
0.00113498
-0.000319193
0.00115993
-0.000320633
0.00118388
-0.000312498
0.00120704
-0.000308135
0.00122856
-0.000290594
0.00124862
-0.00027717
0.00126632
-0.000250936
0.00128167
-0.000226261
0.00129391
-0.000190874
0.00130137
-0.000129286
-0.000136736
0.00130824
0.000174919
-0.00061851
-0.000150021
0.000200615
-0.000539895
0.000227222
-0.000492992
0.000254854
-0.000465584
0.000283541
-0.000443191
0.000313362
-0.000425772
0.00034441
-0.000415425
0.000376706
-0.000401753
0.000410372
-0.000393088
0.000445385
-0.000383455
0.00048186
-0.000374977
0.000519604
-0.000372283
0.000559017
-0.000353736
0.000600073
-0.000348194
0.000642737
-0.000335367
0.000686171
-0.000334986
0.000730675
-0.000321064
0.00077542
-0.000316815
0.000819908
-0.00031128
0.0008636
-0.000300716
0.000905602
-0.000309048
0.000945708
-0.000302271
0.000983592
-0.000308362
0.0010193
-0.000314693
0.00105287
-0.000315997
0.00108495
-0.000332535
0.00111544
-0.000332944
0.00114497
-0.000343592
0.0011735
-0.000345925
0.00120113
-0.000346819
0.00122798
-0.000347485
0.00125358
-0.000338093
0.00127815
-0.000332706
0.00130086
-0.000313301
0.00132188
-0.000298191
0.00134031
-0.000269368
0.00135615
-0.000242099
0.00136861
-0.000203335
0.001376
-0.000136675
-0.000143309
0.00138257
0.000182394
-0.000644374
-0.00015653
0.000209104
-0.000566605
0.000236764
-0.000520652
0.000265478
-0.000494298
0.000295278
-0.00047299
0.000326232
-0.000456727
0.000358425
-0.000447617
0.000391876
-0.000435205
0.000426691
-0.000427903
0.000462851
-0.000419615
0.000500455
-0.000412581
0.000539347
-0.000411174
0.000579861
-0.00039425
0.000621992
-0.000390325
0.000665733
-0.000379109
0.00071042
-0.000379672
0.000756353
-0.000366996
0.000802875
-0.000363336
0.000849593
-0.000357997
0.000896057
-0.000347181
0.000941366
-0.000354358
0.00098527
-0.000346175
0.00102726
-0.00035035
0.00106719
-0.000354623
0.00110495
-0.000353756
0.00114094
-0.000368531
0.00117506
-0.000367062
0.00120784
-0.000376366
0.00123925
-0.000377336
0.0012694
-0.000376973
0.00129845
-0.000376532
0.00132596
-0.000365601
0.00135216
-0.000358905
0.00137624
-0.000337385
0.00139838
-0.000320326
0.00141766
-0.000288656
0.00143408
-0.000258517
0.00144683
-0.000216087
0.0014542
-0.000144037
-0.00014958
0.00146047
0.000190386
-0.000671273
-0.000163487
0.000218182
-0.000594401
0.000246974
-0.000549443
0.000276854
-0.000524178
0.000307855
-0.000503992
0.000340042
-0.000488914
0.000373488
-0.000481064
0.000408214
-0.000469931
0.000444312
-0.000464
0.000481767
-0.000457071
0.000520666
-0.000451479
0.000560878
-0.000451386
0.000602686
-0.000436059
0.000646095
-0.000433733
0.000691109
-0.000424123
0.000737191
-0.000425754
0.000784623
-0.000414428
0.000832887
-0.0004116
0.000881675
-0.000406785
0.000930628
-0.000396135
0.000978904
-0.000402633
0.00102624
-0.000393516
0.00107204
-0.000396151
0.00111602
-0.000398597
0.00115793
-0.000395665
0.00119793
-0.000408538
0.00123589
-0.000405015
0.00127217
-0.000412651
0.00130677
-0.000411928
0.00133976
-0.000409963
0.00137129
-0.000408067
0.00140098
-0.000395288
0.00142904
-0.000386966
0.00145471
-0.00036305
0.00147813
-0.000343746
0.00149841
-0.000308941
0.00151552
-0.000275623
0.00152865
-0.000229213
0.00153604
-0.00015143
-0.000155562
0.00154202
0.000198895
-0.000699277
-0.000170892
0.000227851
-0.000623357
0.00025785
-0.000579442
0.000288979
-0.000555307
0.00032127
-0.000536283
0.000354783
-0.000522427
0.000389585
-0.000515866
0.000425698
-0.000506043
0.0004632
-0.000501503
0.000502085
-0.000495956
0.000542425
-0.000491818
0.000584113
-0.000493075
0.00062739
-0.000479335
0.00067226
-0.000478604
0.000718736
-0.000470598
0.000766372
-0.00047339
0.000815426
-0.000463483
0.000865479
-0.000461653
0.000916294
-0.0004576
0.000967589
-0.00044743
0.0010186
-0.000453648
0.0010691
-0.000444011
0.00111844
-0.000445489
0.00116624
-0.000446404
0.00121218
-0.000441604
0.0012562
-0.000452559
0.0012981
-0.00044691
0.00133809
-0.00045264
0.00137611
-0.000449949
0.00141221
-0.000446062
0.00144651
-0.000442364
0.00147864
-0.00042742
0.0015088
-0.00041713
0.00153627
-0.000390514
0.00156115
-0.000368635
0.00158259
-0.00033038
0.00160052
-0.000293545
0.00161411
-0.000242807
0.00162161
-0.000158929
-0.000161278
0.00162733
0.000207927
-0.000728454
-0.00017875
0.000238115
-0.000653545
0.000269399
-0.000610726
0.000301858
-0.000587766
0.000335525
-0.000569951
0.000370457
-0.000557358
0.000406714
-0.000552123
0.000444318
-0.000543647
0.000483342
-0.000540527
0.000523781
-0.000536395
0.000565698
-0.000533736
0.000609005
-0.000536381
0.000653906
-0.000524236
0.000700408
-0.000525105
0.000748521
-0.000518712
0.000797873
-0.000522742
0.000848693
-0.000514302
0.000900635
-0.000513595
0.000953512
-0.000510476
0.0010071
-0.000501019
0.00106073
-0.000507275
0.00111418
-0.000497468
0.00116684
-0.000498147
0.00121828
-0.000497842
0.0012681
-0.000491422
0.00131608
-0.000500537
0.00136194
-0.000492777
0.00140576
-0.000496451
0.00144739
-0.000491581
0.00148682
-0.000485497
0.00152413
-0.000479671
0.00155895
-0.000462245
0.00159146
-0.000449633
0.00162094
-0.000419992
0.00164749
-0.000395185
0.00167025
-0.00035314
0.00168912
-0.000312418
0.0017033
-0.000256981
0.00171099
-0.00016662
-0.000166767
0.00171648
0.000217489
-0.000758875
-0.000187068
0.000248983
-0.00068504
0.000281629
-0.000643372
0.0003155
-0.000621637
0.00035063
-0.000605081
0.000387071
-0.000593798
0.00042488
-0.000589932
0.00046408
-0.000582847
0.000504736
-0.000581183
0.000546848
-0.000578506
0.00059047
-0.000577359
0.000635529
-0.00058144
0.000682201
-0.000570908
0.000730491
-0.000573395
0.000780409
-0.000568629
0.000831636
-0.000573969
0.000884372
-0.000567038
0.000938327
-0.000567549
0.000993347
-0.000565496
0.00104925
-0.000556924
0.00110545
-0.000563475
0.00116176
-0.000553777
0.00121759
-0.000553972
0.00127249
-0.000552745
0.00132604
-0.000544972
0.00137789
-0.000552385
0.00142771
-0.000542596
0.0014754
-0.000544144
0.00152077
-0.000536952
0.00156372
-0.000528446
0.00160425
-0.000520197
0.00164199
-0.000499987
0.00167706
-0.000484698
0.00170876
-0.000451701
0.00173717
-0.000423591
0.00176142
-0.000377394
0.0017814
-0.00033239
0.00179627
-0.000271852
0.00180425
-0.000174603
-0.000172075
0.00180956
0.00022759
-0.000790612
-0.000195853
0.000260466
-0.000717916
0.000294554
-0.000677459
0.00032992
-0.000657003
0.000366599
-0.00064176
0.00040464
-0.00063184
0.000444098
-0.000629389
0.000484996
-0.000623746
0.000527394
-0.000623581
0.000571294
-0.000622405
0.000616745
-0.00062281
0.000663685
-0.000628379
0.000712266
-0.00061949
0.000762493
-0.000623622
0.000814372
-0.000620508
0.000867628
-0.000627224
0.000922433
-0.000621844
0.000978538
-0.000623654
0.00103581
-0.000622769
0.0010941
-0.000615216
0.00115289
-0.000622264
0.00121202
-0.000612901
0.00127092
-0.000612878
0.00132918
-0.000611
0.00138634
-0.000602132
0.00144197
-0.000608013
0.00149569
-0.000596321
0.00154728
-0.000595736
0.00159647
-0.00058614
0.00164306
-0.00057504
0.00168698
-0.000564115
0.00172784
-0.000540844
0.00176567
-0.000522531
0.00179981
-0.000485842
0.00183027
-0.000454042
0.00185619
-0.000403314
0.00187741
-0.00035361
0.0018931
-0.000287546
0.00190148
-0.000182982
-0.000177262
0.00190667
0.000238241
-0.00082374
-0.000205113
0.000272577
-0.000752252
0.000308187
-0.000713069
0.000345132
-0.000693948
0.000383449
-0.000680076
0.000423184
-0.000671575
0.000464389
-0.000670594
0.000507088
-0.000666445
0.000551336
-0.000667829
0.000597138
-0.000668207
0.000644539
-0.000670211
0.000693485
-0.000677325
0.00074411
-0.000670116
0.000796416
-0.000675927
0.000850407
-0.000674499
0.000905841
-0.000682659
0.000962867
-0.00067887
0.00102126
-0.000682051
0.00108092
-0.000682422
0.0011417
-0.000675995
0.00120313
-0.000683702
0.00126509
-0.000674855
0.00132705
-0.000674836
0.00138859
-0.000672542
0.00144927
-0.000662816
0.00150861
-0.000667347
0.00156618
-0.000653899
0.00162167
-0.00065122
0.00167472
-0.000639188
0.00172505
-0.000625373
0.0017725
-0.00061156
0.00181663
-0.00058498
0.00185742
-0.000563315
0.00189418
-0.000522604
0.00192686
-0.000486721
0.00195462
-0.000431072
0.00197724
-0.000376231
0.00199388
-0.000304194
0.00200277
-0.00019187
-0.000182392
0.0020079
0.000249453
-0.000858336
-0.000214857
0.000285329
-0.000788127
0.000322544
-0.000750284
0.000361156
-0.000732561
0.000401201
-0.000720121
0.000442725
-0.000713099
0.000485775
-0.000713644
0.000530379
-0.000711049
0.000576587
-0.000714037
0.000624406
-0.000716026
0.000673878
-0.000719683
0.000724955
-0.000728402
0.000777757
-0.000722918
0.000832282
-0.000730452
0.000888531
-0.000730748
0.000946291
-0.000740418
0.00100569
-0.000738266
0.00106652
-0.000742886
0.00112869
-0.000744591
0.00119208
-0.000739378
0.00125625
-0.00074788
0.00132109
-0.000739696
0.00138612
-0.000739863
0.00145093
-0.000737354
0.00151509
-0.000726979
0.00157808
-0.000730336
0.00163947
-0.000715286
0.00169883
-0.000710584
0.00175577
-0.00069612
0.0018099
-0.000679511
0.00186098
-0.000662639
0.00190854
-0.000632532
0.00195243
-0.000607207
0.00199198
-0.000562155
0.00202706
-0.000521797
0.00205681
-0.00046083
0.00208098
-0.000400398
0.00209871
-0.000321922
0.00210822
-0.000201378
-0.000187536
0.00211336
0.000261239
-0.000894478
-0.000225096
0.000298737
-0.000825625
0.000337643
-0.000789191
0.000378012
-0.00077293
0.000419879
-0.000761988
0.000463288
-0.000756508
0.000508286
-0.000758642
0.000554901
-0.000757664
0.00060318
-0.000762316
0.000653133
-0.000765978
0.000704796
-0.000771346
0.00075813
-0.000781735
0.000813241
-0.00077803
0.000870123
-0.000787334
0.000928777
-0.000789402
0.00098901
-0.000800651
0.00105093
-0.000800184
0.00111435
-0.000806308
0.00117918
-0.000809417
0.00124529
-0.000805497
0.00131232
-0.000814908
0.00138013
-0.000807505
0.00144828
-0.000808014
0.00151638
-0.000805456
0.00158402
-0.000794614
0.00165064
-0.000796959
0.00171581
-0.000780457
0.00177904
-0.000773815
0.00183987
-0.000756948
0.00189786
-0.000737499
0.00195265
-0.000717432
0.00200373
-0.000683611
0.00205087
-0.000654344
0.00209336
-0.000604646
0.00213099
-0.000559426
0.0021629
-0.000492741
0.00218876
-0.000426255
0.00220769
-0.000340858
0.00221794
-0.00021162
-0.000192767
0.00222317
0.000273611
-0.00093225
-0.000235839
0.000312816
-0.000864831
0.000353503
-0.000829878
0.000395721
-0.000815147
0.000439506
-0.000805773
0.000484902
-0.000801904
0.000531952
-0.000805692
0.000580687
-0.000806399
0.000631151
-0.000812779
0.000683355
-0.000818182
0.000737334
-0.000825325
0.000793051
-0.000837452
0.000850606
-0.000835584
0.000909985
-0.000846713
0.000971189
-0.000850606
0.00103404