/*--------------------------------*- C++ -*----------------------------------*\
| =========                 |                                                 |
| \\      /  F ield         | OpenFOAM: The Open Source CFD Toolbox           |
|  \\    /   O peration     | Version:  5.x                                   |
|   \\  /    A nd           | Web:      www.OpenFOAM.org                      |
|    \\/     M anipulation  |                                                 |
\*---------------------------------------------------------------------------*/
FoamFile
{
    version     2.0;
    format      ascii;
    class       volVectorField;
    location    "100";
    object      U;
}
// * * * * * * * * * * * * * * * * * * * * * * * * * * * * * * * * * * * * * //

dimensions      [0 1 -1 0 0 0 0];

internalField   nonuniform List<vector> 
26000
(
(0.968992 1.5118e-20 1.29803)
(1.29583 8.9808e-20 1.42283)
(1.5041 1.52283e-20 1.28449)
(1.62573 -3.51188e-19 1.06299)
(1.69359 -6.76665e-19 0.845729)
(1.71973 -2.0279e-19 0.653497)
(1.72319 0 0.499377)
(1.70629 0 0.375187)
(1.68744 -6.86686e-19 0.279741)
(1.67131 1.52831e-18 0.205555)
(1.65558 -2.45235e-18 0.144646)
(1.65327 1.29916e-18 0.098659)
(1.6125 -9.73114e-19 0.0506312)
(1.58488 -1.55725e-18 0.00539014)
(1.56089 1.75647e-18 -0.0277927)
(1.53806 -4.38589e-19 -0.0575328)
(1.51181 -2.13095e-18 -0.0868711)
(1.48539 4.18325e-18 -0.114584)
(1.45974 -2.44463e-18 -0.138985)
(1.4338 -2.34382e-18 -0.160875)
(1.41016 -3.03618e-18 -0.180494)
(1.38804 -1.44428e-18 -0.198179)
(1.37119 -1.36276e-18 -0.214589)
(1.35862 5.16096e-18 -0.229471)
(1.34428 -1.19569e-18 -0.243169)
(1.32786 3.42736e-18 -0.2554)
(1.30948 2.15616e-18 -0.26623)
(1.29054 0 -0.27626)
(1.27106 2.9342e-18 -0.285526)
(1.25094 -9.42493e-19 -0.293966)
(1.23075 -7.22264e-18 -0.301515)
(1.21038 0 -0.308209)
(1.1905 0 -0.3142)
(1.17085 8.03051e-19 -0.319518)
(1.15184 -6.27166e-18 -0.324341)
(1.13319 5.28864e-18 -0.3287)
(1.11471 -6.25696e-18 -0.332623)
(1.09733 -5.3697e-18 -0.336207)
(1.07598 1.70238e-19 -0.339663)
(1.06037 -1.75796e-19 -0.341473)
(1.01575 -1.0477e-20 0.63513)
(1.20016 -2.81104e-20 0.818403)
(1.42468 0 0.945295)
(1.6382 1.50825e-19 0.964928)
(1.80984 2.17625e-19 0.900187)
(1.92678 0 0.784688)
(1.99205 1.8356e-19 0.652226)
(2.01382 -4.24019e-19 0.519916)
(2.00373 0 0.403181)
(1.97594 -3.05184e-19 0.305056)
(1.93896 6.15165e-21 0.224522)
(1.904 3.83708e-19 0.161868)
(1.87443 -3.8955e-19 0.106423)
(1.83655 -3.11689e-19 0.0571062)
(1.80078 1.04252e-19 0.0137176)
(1.76881 -8.55177e-19 -0.0247124)
(1.73879 1.06535e-18 -0.0585639)
(1.70884 -8.44445e-19 -0.0897183)
(1.67957 1.25975e-18 -0.117744)
(1.64982 8.18517e-19 -0.143649)
(1.62113 8.14754e-19 -0.167352)
(1.59288 0 -0.189221)
(1.56457 -1.54219e-18 -0.210105)
(1.53684 -1.48785e-18 -0.228793)
(1.50939 7.17299e-19 -0.244875)
(1.48324 0 -0.258798)
(1.45791 1.90113e-21 -0.271332)
(1.43311 0 -0.283103)
(1.40876 -6.11272e-19 -0.293972)
(1.38476 -1.77836e-18 -0.303957)
(1.36148 2.30356e-18 -0.313171)
(1.33865 2.22281e-18 -0.321673)
(1.31645 0 -0.329594)
(1.29467 0 -0.336896)
(1.27349 2.02393e-18 -0.343708)
(1.25285 -3.90332e-18 -0.349983)
(1.23253 0 -0.355792)
(1.21334 1.54249e-21 -0.361275)
(1.19148 1.06829e-19 -0.366751)
(1.17345 -1.11837e-19 -0.370033)
(1.05471 -3.98215e-21 0.473185)
(1.13879 -9.24531e-21 0.588627)
(1.26099 -2.11288e-20 0.709579)
(1.42056 0 0.800105)
(1.59433 0 0.833456)
(1.75452 -6.76054e-20 0.804934)
(1.88249 -3.64389e-20 0.729614)
(1.96768 1.63964e-21 0.623876)
(2.01124 1.31894e-19 0.510261)
(2.02066 3.3903e-19 0.401952)
(2.00702 4.82776e-21 0.306617)
(1.98237 2.14599e-19 0.228992)
(1.95226 -4.48756e-19 0.162004)
(1.91954 1.09206e-18 0.102847)
(1.88499 -5.60722e-19 0.0508035)
(1.85238 6.32141e-20 0.00634798)
(1.82133 5.25628e-19 -0.0325297)
(1.79062 -7.00912e-20 -0.0682484)
(1.76068 -4.03576e-19 -0.100284)
(1.73049 -7.94206e-19 -0.129723)
(1.70128 5.40696e-19 -0.156346)
(1.67252 0 -0.180427)
(1.6437 1.04341e-18 -0.20291)
(1.6152 -1.53043e-18 -0.223234)
(1.58651 9.9504e-19 -0.241474)
(1.55874 5.38379e-21 -0.257589)
(1.53184 9.37861e-19 -0.271925)
(1.50567 -1.8408e-18 -0.285171)
(1.48021 -8.93189e-19 -0.297318)
(1.45514 8.54249e-19 -0.308552)
(1.43078 0 -0.318928)
(1.40685 -1.6077e-18 -0.328508)
(1.38356 3.89057e-19 -0.33741)
(1.36073 -3.77228e-19 -0.3456)
(1.33848 -1.45655e-18 -0.353237)
(1.31684 2.79723e-18 -0.360306)
(1.2957 -2.72136e-18 -0.36695)
(1.27574 2.63018e-18 -0.373255)
(1.25368 -2.44527e-18 -0.379428)
(1.23528 0 -0.384568)
(1.11933 1.19825e-20 0.387093)
(1.15808 -1.87708e-21 0.461542)
(1.21538 2.83276e-20 0.549393)
(1.3054 -1.40058e-20 0.63873)
(1.42767 3.32282e-20 0.708592)
(1.56835 4.73342e-20 0.739947)
(1.70891 4.33682e-20 0.726431)
(1.82967 -1.11613e-19 0.669582)
(1.91846 -7.04458e-20 0.584305)
(1.97083 -1.89938e-19 0.485602)
(1.99145 1.11453e-19 0.387394)
(1.98974 -1.36961e-19 0.301121)
(1.97345 -2.8731e-19 0.22438)
(1.94953 3.15763e-19 0.156275)
(1.92049 3.34878e-19 0.0960059)
(1.89086 -4.09232e-19 0.0453213)
(1.86145 -3.69688e-19 0.00160454)
(1.83197 4.16463e-19 -0.0380879)
(1.80294 -1.20443e-19 -0.0735981)
(1.77346 2.85728e-19 -0.106261)
(1.74462 3.84844e-19 -0.135677)
(1.71611 -7.66739e-19 -0.162267)
(1.68752 3.75765e-19 -0.186951)
(1.65922 -3.7781e-19 -0.209301)
(1.63063 0 -0.229568)
(1.60272 -7.15953e-19 -0.247551)
(1.5756 6.92189e-19 -0.263573)
(1.54924 3.63197e-21 -0.278279)
(1.52369 1.32741e-18 -0.29175)
(1.49857 -3.40923e-21 -0.304263)
(1.47412 -6.29382e-19 -0.315835)
(1.45006 -3.00043e-19 -0.32658)
(1.42662 2.96305e-19 -0.336582)
(1.4036 2.81186e-19 -0.345849)
(1.38113 5.51086e-19 -0.354519)
(1.35925 2.63974e-18 -0.362604)
(1.33781 1.79407e-18 -0.370249)
(1.31745 2.0903e-18 -0.377531)
(1.29523 -1.91834e-18 -0.38466)
(1.27665 -1.93613e-18 -0.391103)
(1.1666 1.86195e-21 0.330849)
(1.19137 -1.11954e-21 0.382015)
(1.22048 -8.51061e-21 0.443259)
(1.26706 2.30341e-20 0.513455)
(1.33969 -1.58365e-20 0.583605)
(1.43842 0 0.639351)
(1.55608 2.31208e-20 0.667789)
(1.67785 5.68524e-21 0.658955)
(1.78755 5.25052e-20 0.614704)
(1.87195 6.01951e-20 0.542902)
(1.92623 0 0.456634)
(1.95261 0 0.371157)
(1.95782 -9.38325e-20 0.289267)
(1.94905 -1.11282e-19 0.214133)
(1.92982 -1.18129e-19 0.1461)
(1.90596 1.70216e-22 0.0888026)
(1.88014 2.01954e-19 0.0397356)
(1.85323 3.57352e-19 -0.00424101)
(1.82616 -2.50778e-19 -0.0433515)
(1.7983 -5.15272e-19 -0.0792808)
(1.77065 5.87946e-19 -0.111544)
(1.74305 -4.29789e-19 -0.140665)
(1.71524 7.23106e-19 -0.167577)
(1.68765 0 -0.19195)
(1.65973 0 -0.214224)
(1.6323 5.50061e-19 -0.234101)
(1.60546 -5.40961e-19 -0.251863)
(1.57926 -3.26863e-21 -0.268107)
(1.55388 5.11103e-19 -0.282937)
(1.52896 9.92354e-19 -0.296713)
(1.50474 0 -0.309462)
(1.48095 0 -0.32134)
(1.45775 -2.2716e-19 -0.332426)
(1.43498 2.20814e-19 -0.342759)
(1.41276 0 -0.352475)
(1.39107 -1.8527e-18 -0.361595)
(1.36975 2.01277e-19 -0.370267)
(1.34939 -2.29758e-21 -0.378543)
(1.32722 -1.44024e-18 -0.386653)
(1.30858 1.55914e-18 -0.394247)
(1.20253 1.72184e-21 0.291722)
(1.22104 -1.34293e-21 0.328983)
(1.239 9.22326e-22 0.372705)
(1.26434 1.8136e-22 0.424491)
(1.30499 -1.27582e-20 0.482205)
(1.36635 9.57398e-21 0.538968)
(1.45001 -1.11574e-20 0.585118)
(1.55061 3.31547e-20 0.608496)
(1.65676 4.67668e-20 0.602275)
(1.7542 0 0.564956)
(1.83188 0 0.502981)
(1.88409 -7.80873e-21 0.429697)
(1.91339 1.95726e-19 0.35076)
(1.92437 -2.32864e-19 0.273215)
(1.91954 2.55678e-19 0.199525)
(1.90497 -9.80226e-20 0.136103)
(1.8852 2.50588e-19 0.0814133)
(1.86248 -4.74726e-19 0.0327754)
(1.83848 4.77223e-19 -0.0102007)
(1.81307 4.11654e-20 -0.0495219)
(1.78731 0 -0.0847238)
(1.76122 -5.61534e-19 -0.116479)
(1.73467 7.35403e-19 -0.145722)
(1.70819 -4.23743e-21 -0.172182)
(1.68129 -8.80455e-19 -0.196479)
(1.6547 4.41822e-19 -0.218286)
(1.62849 0 -0.237863)
(1.60274 -8.38023e-19 -0.255734)
(1.57773 -4.04072e-19 -0.272007)
(1.55317 -3.92875e-19 -0.28711)
(1.52928 3.90303e-19 -0.301082)
(1.5058 0 -0.314127)
(1.48291 0 -0.326326)
(1.46044 0 -0.337743)
(1.4385 0 -0.34851)
(1.41709 1.31611e-18 -0.358659)
(1.39603 1.2805e-18 -0.368345)
(1.37585 -1.15597e-18 -0.377621)
(1.35389 2.13741e-18 -0.386748)
(1.3353 3.80399e-20 -0.395426)
(1.23158 -5.67577e-21 0.26357)
(1.24643 7.3998e-21 0.291676)
(1.25934 6.21437e-21 0.323936)
(1.27498 -7.70507e-21 0.362024)
(1.29842 9.66687e-21 0.40623)
(1.33481 -1.21487e-20 0.45441)
(1.38886 0 0.501774)
(1.46176 -4.53867e-20 0.539483)
(1.54924 -3.34234e-20 0.558801)
(1.64173 0 0.552513)
(1.72776 0 0.519627)
(1.79696 -8.05099e-20 0.46736)
(1.84724 -1.80589e-19 0.400659)
(1.87907 -1.10533e-19 0.327887)
(1.89201 3.70092e-19 0.253098)
(1.89027 -2.16626e-19 0.185672)
(1.87937 0 0.125962)
(1.86286 8.08463e-20 0.0726316)
(1.8432 -4.27894e-20 0.0255723)
(1.82112 3.2396e-19 -0.0173265)
(1.79796 -3.62612e-19 -0.0556131)
(1.77396 0 -0.0901525)
(1.74916 4.55166e-20 -0.12189)
(1.72415 -3.61597e-19 -0.150574)
(1.69855 3.5836e-19 -0.176969)
(1.67305 0 -0.200747)
(1.64771 0 -0.222185)
(1.62264 -3.41271e-19 -0.241758)
(1.59817 3.34569e-19 -0.25956)
(1.57408 -3.27431e-19 -0.276058)
(1.55061 3.18141e-19 -0.291311)
(1.5275 6.13787e-19 -0.305565)
(1.50494 2.98931e-19 -0.31891)
(1.48276 -2.90202e-19 -0.331434)
(1.46108 0 -0.343274)
(1.4399 -1.08121e-18 -0.354464)
(1.41904 -1.0515e-18 -0.36517)
(1.39904 -1.07091e-18 -0.375445)
(1.37728 9.7441e-19 -0.385597)
(1.35879 9.92338e-19 -0.395321)
(1.25579 -5.77296e-21 0.242782)
(1.26837 -5.96029e-22 0.264573)
(1.27862 -5.09329e-21 0.289039)
(1.28966 0 0.317522)
(1.30447 3.74076e-21 0.350806)
(1.32651 1.39574e-20 0.388738)
(1.36014 0 0.429805)
(1.40894 3.14779e-20 0.469233)
(1.47356 2.01605e-20 0.500391)
(1.5502 -3.06942e-20 0.515092)
(1.63097 7.6675e-20 0.507918)
(1.70542 -9.84799e-20 0.479493)
(1.76879 5.21313e-22 0.431749)
(1.81809 1.55605e-19 0.371277)
(1.84915 -9.35753e-20 0.301806)
(1.86252 -1.12971e-19 0.234421)
(1.86313 2.32002e-19 0.171736)
(1.85507 1.91047e-19 0.114512)
(1.8414 5.07427e-22 0.0635128)
(1.82382 -4.8483e-19 0.0169596)
(1.80409 1.04385e-21 -0.0245297)
(1.78282 5.8401e-19 -0.0619716)
(1.76023 -3.16464e-19 -0.0963111)
(1.73706 0 -0.127329)
(1.71304 -3.66793e-20 -0.155904)
(1.68887 2.94742e-19 -0.181713)
(1.66462 -2.89805e-19 -0.205085)
(1.64041 0 -0.226444)
(1.61662 1.39871e-19 -0.245865)
(1.5931 -2.70426e-19 -0.263841)
(1.5701 1.29567e-21 -0.280442)
(1.5474 -2.5903e-19 -0.295956)
(1.52519 -5.06053e-19 -0.310481)
(1.50331 -2.43273e-19 -0.324144)
(1.48186 7.06638e-19 -0.337081)
(1.46085 -6.7983e-19 -0.349334)
(1.44013 0 -0.361078)
(1.42023 8.97572e-19 -0.372361)
(1.39859 -7.92168e-19 -0.383551)
(1.38017 -8.57536e-19 -0.394292)
(1.27639 1.03706e-20 0.22713)
(1.28751 -3.12175e-21 0.244442)
(1.29627 -1.32438e-21 0.263447)
(1.30495 -5.97869e-21 0.285189)
(1.31543 -3.07008e-21 0.310407)
(1.3298 -1.55101e-20 0.339523)
(1.35111 1.8724e-20 0.372531)
(1.3828 -1.7555e-20 0.407458)
(1.42746 -1.55969e-20 0.440544)
(1.48528 1.94486e-20 0.465431)
(1.55273 -2.8126e-20 0.475843)
(1.62223 1.09233e-19 0.468091)
(1.68902 -1.30734e-19 0.441051)
(1.74875 5.34213e-20 0.397868)
(1.79464 -1.37453e-19 0.340021)
(1.82295 1.56528e-19 0.277938)
(1.83658 0 0.215859)
(1.83897 -2.01271e-19 0.15676)
(1.83311 2.14113e-19 0.102718)
(1.82144 -2.799e-19 0.0528298)
(1.80614 4.75042e-19 0.00820333)
(1.78829 5.88878e-20 -0.0321726)
(1.76847 -2.92143e-19 -0.0691782)
(1.74755 -3.09167e-20 -0.102621)
(1.72542 2.89079e-20 -0.133459)
(1.70284 -1.55002e-20 -0.161357)
(1.67989 2.41695e-19 -0.186712)
(1.65673 -2.4259e-19 -0.209919)
(1.63377 -1.16579e-19 -0.231038)
(1.61091 2.31979e-19 -0.250571)
(1.58845 -4.50773e-19 -0.268593)
(1.56619 4.38159e-19 -0.28543)
(1.54434 6.42245e-19 -0.301188)
(1.52275 -4.13639e-19 -0.316027)
(1.50152 -2.03473e-19 -0.330088)
(1.48066 1.00599e-21 -0.343431)
(1.46003 7.48274e-19 -0.356234)
(1.44015 -7.17478e-19 -0.368542)
(1.41852 -1.30225e-18 -0.380789)
(1.4001 -1.37129e-21 -0.392539)
(1.29423 3.63433e-22 0.215169)
(1.30438 0 0.229212)
(1.31226 0 0.244303)
(1.31967 5.19468e-21 0.261247)
(1.32791 0 0.280642)
(1.33824 3.11484e-21 0.302975)
(1.35261 -1.18139e-20 0.328726)
(1.37354 0 0.357344)
(1.40368 1.14631e-20 0.387186)
(1.44494 -3.11166e-20 0.414292)
(1.49691 3.85018e-20 0.433664)
(1.5555 -2.43105e-20 0.440108)
(1.61762 3.32426e-20 0.430836)
(1.67964 0 0.405809)
(1.73429 0 0.36356)
(1.77462 -6.36164e-20 0.311657)
(1.80079 1.41233e-19 0.254583)
(1.81458 -1.55573e-19 0.196776)
(1.81802 1.73104e-19 0.141584)
(1.8137 -1.80644e-19 0.0893519)
(1.80396 1.95237e-19 0.0420273)
(1.7904 -4.47831e-19 -0.00111919)
(1.77399 2.57068e-19 -0.0407481)
(1.7558 -2.57137e-20 -0.0766345)
(1.73593 1.6293e-21 -0.10977)
(1.71522 2.23426e-19 -0.139794)
(1.69379 -4.13831e-19 -0.167175)
(1.67188 2.02969e-21 -0.19228)
(1.64991 2.10259e-21 -0.21516)
(1.62783 -9.66758e-20 -0.236318)
(1.60599 5.84621e-19 -0.255826)
(1.58422 -1.35648e-21 -0.274046)
(1.56276 -3.69607e-19 -0.291089)
(1.54146 3.57888e-19 -0.307148)
(1.52044 -3.45819e-19 -0.322369)
(1.49971 2.98099e-21 -0.33683)
(1.47912 -4.85406e-19 -0.350717)
(1.45922 5.4429e-19 -0.364073)
(1.43752 1.16295e-18 -0.377403)
(1.41901 3.81585e-20 -0.390164)
(1.3099 -5.51757e-21 0.205923)
(1.31937 -7.98027e-21 0.217518)
(1.32673 8.55735e-21 0.229734)
(1.33344 1.00042e-20 0.243202)
(1.34047 0 0.258385)
(1.34865 6.08228e-21 0.275694)
(1.35921 1.99969e-22 0.295678)
(1.37381 0 0.318346)
(1.3945 -1.84253e-20 0.343213)
(1.42342 1.19326e-20 0.368175)
(1.46165 -1.33377e-20 0.390039)
(1.50777 -1.8244e-20 0.403985)
(1.56057 0 0.407046)
(1.61824 0 0.397387)
(1.67486 0 0.371288)
(1.7223 -4.54139e-20 0.332471)
(1.75838 0 0.284311)
(1.78289 -6.07642e-20 0.231429)
(1.79617 2.07101e-19 0.177815)
(1.80027 7.48499e-20 0.125025)
(1.79719 -3.21529e-19 0.0759983)
(1.78884 8.3296e-20 0.0305921)
(1.7766 -2.58988e-19 -0.0114075)
(1.7617 8.3828e-19 -0.0496318)
(1.74452 -3.98768e-19 -0.0850266)
(1.726 -4.4952e-20 -0.117172)
(1.70637 0 -0.146589)
(1.68592 1.10814e-20 -0.173614)
(1.66512 -3.91814e-19 -0.198295)
(1.64396 4.31382e-19 -0.221131)
(1.62284 -2.53148e-19 -0.242183)
(1.60163 1.64765e-19 -0.26184)
(1.5806 -1.60668e-19 -0.280216)
(1.55962 -3.09326e-19 -0.297538)
(1.53881 -3.02633e-19 -0.313957)
(1.51819 2.91415e-19 -0.32957)
(1.49763 -7.02591e-20 -0.344567)
(1.47767 6.81953e-20 -0.358995)
(1.45584 -9.81854e-19 -0.373435)
(1.43717 -5.27454e-19 -0.387223)
(1.32382 -4.897e-21 0.198714)
(1.3328 1.70108e-20 0.208428)
(1.33984 -1.68754e-20 0.218485)
(1.34617 -1.60302e-20 0.229383)
(1.35255 -4.91715e-21 0.241481)
(1.35955 2.59922e-21 0.255097)
(1.36801 1.20212e-20 0.270711)
(1.37899 0 0.288497)
(1.3939 3.19887e-20 0.308471)
(1.41451 -9.49608e-21 0.329641)
(1.44228 -1.05735e-20 0.350283)
(1.47726 -2.9388e-20 0.366691)
(1.51955 -3.76744e-20 0.376553)
(1.56909 4.35018e-20 0.377623)
(1.62218 0 0.365281)
(1.67139 1.10647e-19 0.339821)
(1.71333 -1.66442e-19 0.302826)
(1.74619 1.45953e-19 0.257935)
(1.76853 -6.01176e-20 0.208858)
(1.78129 5.7869e-20 0.157885)
(1.7856 -2.67231e-19 0.108742)
(1.78331 6.23867e-19 0.0620502)
(1.77598 -3.63947e-19 0.0182435)
(1.76498 -7.56256e-20 -0.0220169)
(1.75099 3.81107e-20 -0.0595095)
(1.73504 3.90639e-20 -0.0936931)
(1.7175 0 -0.125103)
(1.69877 -3.36665e-19 -0.154035)
(1.67933 3.44658e-19 -0.180528)
(1.65925 0 -0.205069)
(1.63898 -7.42074e-20 -0.227703)
(1.61843 0 -0.248843)
(1.59789 1.06944e-21 -0.268594)
(1.57727 1.38339e-19 -0.287218)
(1.5567 4.0043e-19 -0.304868)
(1.5362 -1.29033e-19 -0.321665)
(1.51565 5.59606e-19 -0.337802)
(1.49561 4.17244e-19 -0.353328)
(1.47362 1.71039e-18 -0.368905)
(1.45474 9.59028e-19 -0.383739)
(1.33628 9.15413e-21 0.193053)
(1.3449 1.4425e-21 0.201295)
(1.35174 7.37017e-21 0.209693)
(1.35787 8.58184e-21 0.218652)
(1.3639 2.36363e-21 0.228452)
(1.37027 -1.75049e-20 0.239332)
(1.37755 -1.64706e-20 0.25168)
(1.38646 0 0.265684)
(1.39794 1.30136e-23 0.281522)
(1.41329 1.64697e-20 0.298769)
(1.4338 2.06387e-20 0.316623)
(1.46013 2.64475e-20 0.332511)
(1.49298 -2.78542e-20 0.344962)
(1.53339 -3.49568e-20 0.352131)
(1.57976 4.27125e-20 0.349662)
(1.62642 0 0.33564)
(1.66992 0 0.309976)
(1.70775 1.58691e-19 0.274747)
(1.73709 -3.59652e-19 0.232611)
(1.75768 9.71776e-20 0.185897)
(1.76942 3.3007e-19 0.138604)
(1.77367 -1.15953e-19 0.0920411)
(1.77187 0 0.0473562)
(1.76537 3.83731e-19 0.00562538)
(1.75507 -2.6077e-19 -0.0336219)
(1.7421 0 -0.0696442)
(1.727 -2.66997e-19 -0.102932)
(1.71026 3.21443e-19 -0.1337)
(1.69241 0 -0.161972)
(1.67362 0 -0.188215)
(1.65434 0 -0.212447)
(1.63456 0 -0.235095)
(1.61461 1.24289e-19 -0.256252)
(1.5944 -2.4211e-19 -0.276209)
(1.57411 1.17907e-19 -0.29512)
(1.55376 -3.42163e-19 -0.313128)
(1.53324 -4.44408e-19 -0.330431)
(1.51312 -1.85976e-21 -0.34708)
(1.49095 -7.75579e-19 -0.363821)
(1.47182 -4.1508e-19 -0.379723)
(1.34751 -4.31746e-21 0.188584)
(1.35585 -9.28746e-21 0.195652)
(1.36257 1.005e-21 0.202751)
(1.3686 0 0.210217)
(1.37446 -4.47167e-21 0.218273)
(1.38049 2.31432e-20 0.227097)
(1.38712 1.00283e-20 0.236998)
(1.39484 -1.1279e-20 0.248128)
(1.40429 -1.25675e-20 0.260691)
(1.41639 -1.45871e-20 0.274514)
(1.43214 -1.72566e-20 0.289283)
(1.45231 -4.92645e-22 0.303293)
(1.47771 1.07257e-21 0.31576)
(1.50983 3.0463e-21 0.32547)
(1.5485 -6.97694e-20 0.328956)
(1.59004 0 0.323355)
(1.63166 5.07899e-20 0.307498)
(1.67095 6.65523e-20 0.281965)
(1.70452 -1.44073e-19 0.248039)
(1.73114 -2.19723e-21 0.207499)
(1.74952 8.71398e-20 0.163989)
(1.76022 9.73839e-20 0.119208)
(1.76424 -2.0765e-19 0.0748829)
(1.76267 -1.10857e-19 0.032528)
(1.75654 0 -0.00791131)
(1.74697 1.17472e-19 -0.0454205)
(1.73465 -2.3429e-19 -0.0803607)
(1.72019 -2.07093e-19 -0.112822)
(1.7042 5.30114e-19 -0.142789)
(1.68689 1.25917e-20 -0.170686)
(1.66878 -2.32659e-19 -0.196498)
(1.64992 -5.63257e-20 -0.220656)
(1.63066 -1.1013e-19 -0.243232)
(1.61096 6.48383e-19 -0.264541)
(1.59101 -4.24475e-19 -0.284733)
(1.57085 2.04552e-19 -0.303972)
(1.55039 -9.87091e-20 -0.322462)
(1.5302 -6.66854e-19 -0.340258)
(1.50786 0 -0.358186)
(1.48846 3.67966e-19 -0.375178)
(1.35768 -5.42338e-22 0.185043)
(1.3658 4.94069e-22 0.191159)
(1.37244 1.00342e-20 0.197224)
(1.37844 -1.95938e-21 0.203519)
(1.38423 -4.26723e-21 0.210225)
(1.39009 -4.42676e-21 0.21748)
(1.39636 0 0.225523)
(1.40339 1.03823e-20 0.234473)
(1.41164 -1.15881e-20 0.244505)
(1.42175 1.31494e-20 0.255552)
(1.43445 7.4117e-23 0.267522)
(1.45044 2.22753e-22 0.279293)
(1.47042 -3.752e-22 0.290518)
(1.49588 4.82646e-20 0.300537)
(1.52741 0 0.306883)
(1.56292 -7.41319e-20 0.306638)
(1.60055 1.66728e-19 0.298201)
(1.63849 -4.63337e-20 0.281108)
(1.67348 -1.22724e-19 0.255394)
(1.70382 1.27297e-19 0.22201)
(1.72734 0 0.183755)
(1.74374 2.46226e-19 0.142327)
(1.75339 -2.63675e-19 0.0997304)
(1.75693 -1.89019e-19 0.0578097)
(1.75526 1.94036e-19 0.0169499)
(1.74945 2.03498e-19 -0.0215233)
(1.74025 -1.02995e-19 -0.0577618)
(1.72838 1.56568e-19 -0.0916801)
(1.71449 1.55534e-19 -0.123186)
(1.69889 -2.21223e-19 -0.152638)
(1.68216 0 -0.179974)
(1.66437 5.06885e-20 -0.205611)
(1.64593 -1.9889e-19 -0.229596)
(1.62684 1.948e-19 -0.252258)
(1.60732 9.62931e-20 -0.273738)
(1.58742 1.03144e-21 -0.294221)
(1.56707 8.99707e-20 -0.313912)
(1.54684 6.87932e-19 -0.33287)
(1.52435 -6.06517e-19 -0.352005)
(1.50468 3.09664e-19 -0.370107)
(1.36694 -3.62289e-21 0.18223)
(1.37488 -4.78627e-22 0.187564)
(1.38147 -1.78256e-21 0.192792)
(1.38746 1.89493e-21 0.198154)
(1.39324 0 0.203797)
(1.39903 0 0.209831)
(1.40511 0 0.216444)
(1.41175 0 0.223722)
(1.41927 1.09404e-20 0.231809)
(1.42815 -2.38942e-20 0.240672)
(1.43893 2.74901e-20 0.250307)
(1.45215 5.32361e-23 0.259962)
(1.46837 -3.09172e-22 0.269525)
(1.48885 -2.07856e-20 0.278707)
(1.51447 -5.05062e-20 0.285876)
(1.54423 2.87984e-20 0.288509)
(1.57707 -7.00916e-20 0.285035)
(1.6119 -4.08983e-20 0.274467)
(1.64605 -1.49023e-19 0.255982)
(1.6778 1.05652e-19 0.229737)
(1.70459 0 0.19748)
(1.72543 -7.0444e-20 0.160577)
(1.74005 -7.57571e-20 0.120965)
(1.74847 -2.16396e-21 0.0806025)
(1.75134 1.67933e-19 0.0402345)
(1.74948 -1.77669e-19 0.00146994)
(1.74367 -9.08354e-20 -0.035581)
(1.73466 0 -0.0706153)
(1.72313 0 -0.103425)
(1.70948 0 -0.134271)
(1.6943 4.59128e-20 -0.163025)
(1.67776 0 -0.190075)
(1.66029 2.23805e-20 -0.21543)
(1.64194 0 -0.239424)
(1.62294 8.53993e-20 -0.262182)
(1.60338 -1.67072e-19 -0.283907)
(1.58321 -1.61522e-19 -0.304802)
(1.56299 -3.12796e-19 -0.324932)
(1.54039 5.7183e-19 -0.345284)
(1.52047 -3.01606e-19 -0.364515)
(1.37539 3.91668e-21 0.179995)
(1.38318 7.65383e-21 0.184676)
(1.38974 -7.36089e-21 0.189219)
(1.39575 0 0.193824)
(1.40154 0 0.198618)
(1.40732 0 0.203686)
(1.41331 8.70954e-21 0.209179)
(1.41972 -9.39498e-21 0.215159)
(1.42681 -2.41733e-22 0.221737)
(1.43493 1.0842e-20 0.228896)
(1.44448 1.19785e-20 0.236654)
(1.45587 1.40188e-20 0.244492)
(1.46953 4.89939e-20 0.252404)
(1.48646 -1.74912e-20 0.260309)
(1.50755 -4.22795e-20 0.267168)
(1.53242 -2.66454e-20 0.270982)
(1.56057 2.94997e-20 0.270431)
(1.59155 3.57298e-20 0.264406)
(1.62339 0 0.251654)
(1.65469 -1.41814e-19 0.231763)
(1.68292 1.0493e-19 0.205496)
(1.70668 -1.15648e-19 0.173712)
(1.72519 1.27564e-19 0.138005)
(1.7379 0 0.100204)
(1.74507 0 0.0612608)
(1.74718 3.88304e-19 0.0229654)
(1.7449 -2.37031e-19 -0.0143058)
(1.73894 8.10215e-20 -0.0500161)
(1.72999 -1.64586e-19 -0.083812)
(1.71849 7.56511e-22 -0.115822)
(1.70507 2.89542e-19 -0.145837)
(1.68996 -1.63803e-19 -0.174189)
(1.67362 -1.53243e-20 -0.200842)
(1.65613 0 -0.22612)
(1.63778 5.85909e-22 -0.250128)
(1.61866 0 -0.273077)
(1.59874 7.4604e-20 -0.295167)
(1.57861 -2.11735e-19 -0.316466)
(1.55595 3.23047e-20 -0.338038)
(1.53581 -3.09188e-19 -0.35841)
(1.38313 7.78311e-21 0.178219)
(1.39079 -5.41942e-21 0.182352)
(1.39733 -1.78082e-21 0.186324)
(1.40336 0 0.190309)
(1.40919 3.84809e-21 0.194412)
(1.41498 4.06416e-21 0.198705)
(1.42094 -1.68266e-20 0.203306)
(1.42724 8.60747e-21 0.208262)
(1.43407 1.93581e-20 0.213658)
(1.44171 -2.08888e-20 0.21948)
(1.45045 -3.48711e-20 0.225748)
(1.46064 -4.0419e-20 0.232089)
(1.47257 4.34005e-20 0.238536)
(1.48702 -3.40448e-20 0.245108)
(1.50477 7.5339e-20 0.251144)
(1.52575 0 0.255128)
(1.54982 -4.73594e-22 0.256045)
(1.57694 5.87014e-20 0.252884)
(1.60579 7.1008e-20 0.244295)
(1.63539 4.85276e-22 0.229563)
(1.66354 0 0.208699)
(1.68874 2.01286e-19 0.182046)
(1.70991 -3.48282e-21 0.150712)
(1.72603 0 0.116205)
(1.73697 0 0.0795026)
(1.74283 -1.37972e-19 0.0424317)
(1.74405 -2.10181e-19 0.00558528)
(1.74124 2.16384e-19 -0.0302894)
(1.735 0 -0.0646794)
(1.72584 1.47972e-19 -0.0975609)
(1.71436 -2.98002e-19 -0.128622)
(1.70084 1.47863e-19 -0.158123)
(1.68578 -2.28958e-20 -0.185964)
(1.66931 0 -0.21245)
(1.65173 -7.00051e-20 -0.237655)
(1.63315 2.75539e-19 -0.26179)
(1.61359 -1.34142e-19 -0.28505)
(1.59361 5.19753e-19 -0.307506)
(1.57099 0 -0.330287)
(1.55067 -1.94164e-21 -0.351806)
(1.39023 -8.38479e-21 0.176813)
(1.39777 -6.37361e-21 0.18048)
(1.40429 7.13773e-21 0.183972)
(1.41035 -1.08249e-20 0.187441)
(1.41622 -1.29668e-22 0.190976)
(1.42205 -1.15897e-20 0.194636)
(1.42801 1.63876e-20 0.198517)
(1.43426 1.74693e-22 0.202653)
(1.44094 -9.44959e-21 0.207109)
(1.44828 2.00848e-20 0.211871)
(1.4565 1.14584e-20 0.216954)
(1.46588 -4.96967e-20 0.222081)
(1.47662 1.30792e-20 0.227292)
(1.48934 -3.11164e-20 0.232643)
(1.50468 -3.54963e-20 0.237703)
(1.52271 3.94127e-20 0.241338)
(1.54345 0 0.242801)
(1.56711 5.36153e-20 0.241264)
(1.59287 -5.90065e-20 0.235475)
(1.62013 -6.92669e-20 0.224629)
(1.64716 0 0.208261)
(1.67256 -8.82512e-20 0.186303)
(1.69517 9.72458e-20 0.159364)
(1.71371 -1.03933e-19 0.128536)
(1.72771 0 0.0946683)
(1.73687 2.41351e-19 0.0594749)
(1.74138 -3.69924e-19 0.0236796)
(1.74166 1.27906e-19 -0.0118197)
(1.73821 0 -0.0463633)
(1.73149 -2.6619e-19 -0.0797693)
(1.72209 4.70895e-19 -0.111613)
(1.71032 -2.00896e-19 -0.142063)
(1.69669 -1.17144e-19 -0.170949)
(1.68137 0 -0.198535)
(1.66468 1.29002e-19 -0.224857)
(1.64677 -2.53127e-19 -0.250122)
(1.62767 6.25208e-20 -0.27451)
(1.60794 -4.17198e-19 -0.298094)
(1.58543 2.72735e-20 -0.322062)
(1.56499 -2.8746e-20 -0.344723)
(1.39676 0 0.175705)
(1.40419 8.77922e-21 0.178971)
(1.4107 -8.59675e-21 0.182057)
(1.41678 3.39051e-21 0.185091)
(1.42269 -3.70142e-21 0.188153)
(1.42857 7.47092e-21 0.191291)
(1.43456 1.65916e-22 0.194583)
(1.44079 -2.51835e-20 0.198052)
(1.44739 -1.82613e-20 0.201749)
(1.45453 9.57115e-21 0.20566)
(1.46241 2.14287e-20 0.209794)
(1.47123 -2.30845e-20 0.213937)
(1.48115 -2.59211e-20 0.218125)
(1.49266 5.66912e-20 0.222422)
(1.50627 -3.06314e-20 0.226528)
(1.5221 -7.34181e-20 0.229598)
(1.54023 3.99433e-20 0.231085)
(1.56099 0 0.230347)
(1.5839 0 0.226314)
(1.60865 -5.8958e-20 0.218218)
(1.63398 0 0.205362)
(1.65869 -1.53676e-19 0.187404)
(1.68173 1.65668e-19 0.164539)
(1.7017 -2.79599e-19 0.137435)
(1.71794 1.94806e-19 0.106724)
(1.72981 1.04805e-19 0.0738874)
(1.73725 -2.19122e-19 0.0396806)
(1.74044 -1.17997e-19 0.00507137)
(1.73972 3.52619e-19 -0.0291722)
(1.73548 0 -0.0627233)
(1.72825 1.83396e-19 -0.0950485)
(1.71834 6.003e-20 -0.12621)
(1.70627 -1.2256e-19 -0.155959)
(1.69223 -1.19927e-19 -0.184506)
(1.67656 2.95105e-20 -0.211843)
(1.65943 -1.15105e-19 -0.238158)
(1.64089 2.26977e-19 -0.263614)
(1.62151 2.20659e-19 -0.288281)
(1.59922 -3.79179e-19 -0.3134)
(1.57873 -2.48017e-20 -0.337188)
(1.40277 0 0.174838)
(1.4101 6.9492e-21 0.177757)
(1.41659 0 0.180495)
(1.4227 -6.90819e-21 0.183161)
(1.42865 7.03957e-21 0.185824)
(1.43457 -9.03661e-23 0.188525)
(1.4406 7.69638e-21 0.191328)
(1.44684 -8.06106e-21 0.194248)
(1.45339 1.73708e-20 0.197325)
(1.46042 0 0.200544)
(1.46807 4.0786e-20 0.203908)
(1.47651 -6.70459e-20 0.20725)
(1.48585 -3.191e-22 0.210595)
(1.49649 2.6527e-20 0.214003)
(1.50886 2.58702e-22 0.217252)
(1.52305 3.37697e-20 0.219702)
(1.53918 3.68311e-20 0.22095)
(1.5576 -8.56762e-20 0.220509)
(1.57804 -3.37615e-21 0.2175)
(1.60041 1.57888e-19 0.211253)
(1.62382 0 0.201007)
(1.64731 -2.01316e-19 0.186275)
(1.67001 7.27596e-20 0.166957)
(1.69059 1.64273e-19 0.143357)
(1.70826 -1.72212e-19 0.115862)
(1.7222 -9.53376e-20 0.0856557)
(1.73207 2.24954e-21 0.053436)
(1.73787 0 0.020158)
(1.73972 1.05589e-19 -0.0133578)
(1.73791 4.95909e-22 -0.0466712)
(1.73286 1.1104e-19 -0.0791547)
(1.72489 -3.31487e-19 -0.110763)
(1.71447 2.22341e-19 -0.141165)
(1.70182 2.72072e-20 -0.170509)
(1.68729 7.77193e-20 -0.198731)
(1.67106 -5.39029e-20 -0.225995)
(1.65319 -1.05095e-19 -0.252441)
(1.63427 -2.02083e-19 -0.278131)
(1.61229 3.77686e-19 -0.304349)
(1.59183 0 -0.329236)
(1.4083 8.90987e-22 0.174167)
(1.41555 -7.56927e-21 0.176785)
(1.42203 6.73553e-21 0.179221)
(1.42815 1.01625e-20 0.181572)
(1.43414 -3.42709e-21 0.183896)
(1.44011 1.38699e-22 0.186228)
(1.44618 8.86174e-23 0.188621)
(1.45243 1.60386e-20 0.191083)
(1.45898 -1.69833e-20 0.193647)
(1.46593 0 0.196296)
(1.47342 2.95026e-22 0.199028)
(1.48159 2.17546e-20 0.201711)
(1.49052 2.3059e-20 0.204359)
(1.50054 -2.52714e-20 0.207022)
(1.51199 5.56409e-20 0.209528)
(1.52496 -6.1758e-20 0.211382)
(1.53957 -1.03982e-19 0.212281)
(1.55614 7.56823e-20 0.211853)
(1.57454 0 0.20939)
(1.59479 0 0.204335)
(1.61628 0 0.195956)
(1.63831 1.8091e-19 0.18372)
(1.66019 -6.29886e-20 0.167345)
(1.68073 1.46063e-19 0.146863)
(1.69914 -1.53268e-19 0.122436)
(1.71449 -1.69303e-19 0.0949344)
(1.72627 2.63785e-19 0.0649408)
(1.73428 0 0.033326)
(1.73845 0 0.000905384)
(1.73893 -9.73536e-20 -0.0318119)
(1.73603 -9.94102e-20 -0.0641317)
(1.73001 -1.49383e-21 -0.0959086)
(1.7213 0 -0.126735)
(1.71013 -2.52745e-20 -0.156686)
(1.69682 1.02986e-19 -0.185644)
(1.68159 -1.47864e-19 -0.213737)
(1.66451 0 -0.241075)
(1.64614 1.88878e-19 -0.267713)
(1.62459 0 -0.294962)
(1.60424 -3.57214e-19 -0.320909)
(1.41341 0 0.173654)
(1.42058 -1.69286e-21 0.176008)
(1.42703 1.69163e-21 0.178184)
(1.43318 0 0.180262)
(1.4392 0 0.182295)
(1.44521 1.42657e-20 0.184313)
(1.45132 0 0.186357)
(1.4576 -3.13794e-20 0.188435)
(1.46414 1.65613e-20 0.190568)
(1.47106 -1.79895e-20 0.192742)
(1.47844 5.65912e-20 0.19495)
(1.48641 -2.09926e-20 0.197085)
(1.49504 2.17988e-20 0.199153)
(1.5046 0 0.201192)
(1.51537 5.29765e-20 0.203062)
(1.52743 -2.82918e-20 0.204374)
(1.54086 0 0.204893)
(1.55598 0 0.204331)
(1.57272 0 0.20212)
(1.59116 8.83276e-20 0.197803)
(1.6109 2.95803e-21 0.190724)
(1.63142 -1.05472e-19 0.180361)
(1.65222 1.19893e-19 0.166345)
(1.67227 2.89331e-22 0.148522)
(1.69087 0 0.126877)
(1.70706 -1.5199e-19 0.101996)
(1.72023 1.57034e-19 0.0743141)
(1.73001 0 0.0445718)
(1.73618 -1.74064e-19 0.0135288)
(1.73874 2.67809e-19 -0.0182832)
(1.73788 9.21126e-20 -0.0501382)
(1.73377 -1.84069e-19 -0.0818084)
(1.72679 9.24291e-20 -0.11282)
(1.71714 0 -0.143177)
(1.70514 1.6124e-19 -0.172705)
(1.69099 -2.95084e-19 -0.201489)
(1.67479 7.33739e-22 -0.229606)
(1.65707 8.76605e-20 -0.2571)
(1.63605 -3.23802e-19 -0.285299)
(1.61591 6.65546e-19 -0.312255)
(1.41814 0 0.17327)
(1.42522 9.92479e-21 0.175392)
(1.43166 -9.68604e-21 0.17734)
(1.43781 6.67453e-21 0.179181)
(1.44387 -6.67019e-21 0.180963)
(1.44991 -1.39836e-20 0.18271)
(1.45606 7.42056e-21 0.184458)
(1.46237 -2.3279e-20 0.186207)
(1.46892 3.25152e-20 0.187976)
(1.47581 -5.20169e-20 0.189749)
(1.48312 -2.44643e-22 0.191518)
(1.49095 -2.00444e-20 0.193192)
(1.49936 2.12854e-20 0.194774)
(1.50858 0 0.196288)
(1.51883 -2.48285e-20 0.197615)
(1.53018 2.85655e-20 0.198447)
(1.54271 -5.9189e-20 0.198596)
(1.55669 0 0.197831)
(1.57208 0 0.195696)
(1.58901 -7.94452e-20 0.191817)
(1.6072 9.06783e-20 0.185626)
(1.62628 2.71955e-21 0.176643)
(1.6459 -1.05698e-19 0.164469)
(1.66521 -2.36613e-19 0.148846)
(1.6836 1.24085e-19 0.129631)
(1.70016 0 0.107174)
(1.71423 -1.44362e-19 0.0817633)
(1.72536 1.50367e-19 0.0539852)
(1.73318 -1.56009e-19 0.0245074)
(1.73757 0 -0.00615672)
(1.73857 -1.67101e-19 -0.0372853)
(1.73629 8.61508e-20 -0.0685918)
(1.73101 1.69677e-19 -0.0995555)
(1.72289 -1.7058e-19 -0.130111)
(1.71225 2.14806e-20 -0.160031)
(1.69925 1.59253e-20 -0.189356)
(1.684 -4.13485e-20 -0.218127)
(1.66702 0 -0.246372)
(1.64664 6.07305e-19 -0.275427)
(1.62679 -4.18312e-21 -0.303327)
(1.4225 0 0.172989)
(1.42951 5.82758e-23 0.174907)
(1.43592 -3.25824e-21 0.176653)
(1.44209 3.20607e-21 0.178289)
(1.44817 -1.33993e-20 0.179852)
(1.45425 0 0.181365)
(1.46043 1.44589e-20 0.182856)
(1.46677 1.49797e-20 0.184325)