/*--------------------------------*- C++ -*----------------------------------*\
| =========                 |                                                 |
| \\      /  F ield         | OpenFOAM: The Open Source CFD Toolbox           |
|  \\    /   O peration     | Version:  5.x                                   |
|   \\  /    A nd           | Web:      www.OpenFOAM.org                      |
|    \\/     M anipulation  |                                                 |
\*---------------------------------------------------------------------------*/
FoamFile
{
    version     2.0;
    format      ascii;
    class       volScalarField;
    location    "300";
    object      nuTilda;
}
// * * * * * * * * * * * * * * * * * * * * * * * * * * * * * * * * * * * * * //

dimensions      [0 2 -1 0 0 0 0];

internalField   nonuniform List<scalar> 
26000
(
0.000443158
0.000350162
0.000270556
0.000216228
0.000179278
0.000159538
0.000152515
0.000147317
0.000143537
0.000140264
0.000137838
0.000136778
0.000134139
0.000134142
0.000134843
0.00013526
0.000135992
0.000137351
0.000139221
0.000141666
0.000144488
0.000147486
0.000150823
0.000154313
0.000157542
0.000160329
0.000162746
0.000165047
0.00016728
0.000169518
0.000171655
0.000173488
0.000174963
0.00017604
0.000176732
0.000176996
0.000176796
0.000176185
0.00017447
0.000172437
0.00181487
0.00155148
0.00124593
0.00101485
0.000843538
0.000716199
0.000619744
0.00054719
0.000490497
0.00044749
0.000414101
0.000389312
0.000367453
0.000351288
0.000340092
0.00032969
0.00032029
0.000314497
0.000310511
0.000309537
0.000309867
0.000310504
0.00031287
0.000315636
0.00031622
0.000314242
0.000310767
0.000307239
0.00030385
0.000300925
0.000297773
0.000293263
0.000287798
0.000281331
0.000274207
0.00026631
0.000257888
0.000248989
0.000239036
0.000230299
0.00328042
0.00291918
0.00250461
0.00213329
0.00181797
0.00156805
0.00137058
0.00121682
0.00109418
0.000998579
0.00092333
0.0008657
0.000816157
0.000772822
0.000733438
0.000703281
0.000677795
0.000655712
0.000638496
0.000624612
0.000615288
0.000606496
0.000598902
0.000593382
0.00058995
0.000588475
0.000587588
0.000588226
0.000589437
0.000591982
0.000592341
0.000588278
0.000582445
0.000574208
0.000563907
0.000551205
0.000536557
0.000520275
0.000500049
0.000481526
0.0048241
0.00441851
0.00392173
0.00342111
0.00298514
0.00261889
0.00231334
0.00206299
0.00185614
0.00168945
0.00155514
0.00145143
0.00136299
0.00128392
0.0012202
0.00117231
0.00113189
0.00109795
0.00107149
0.00105065
0.00103619
0.00101955
0.00100344
0.000990562
0.000979908
0.000971556
0.000963422
0.000956876
0.000951083
0.000946266
0.000942329
0.000938428
0.000935193
0.000927035
0.000914731
0.000897859
0.000877138
0.000852984
0.00082239
0.000793221
0.00642511
0.00599425
0.00544007
0.00486579
0.00432927
0.00385065
0.00343484
0.00308198
0.00278414
0.00253938
0.00233881
0.00218143
0.00204768
0.00192855
0.00182988
0.00175419
0.00168965
0.00163376
0.00158776
0.00154928
0.00152006
0.00149518
0.00147443
0.00145858
0.00144576
0.00143353
0.00142022
0.00140851
0.00139646
0.00138433
0.00137262
0.00136054
0.00134913
0.0013369
0.00132319
0.00130247
0.00127538
0.00124256
0.00120029
0.00115879
0.00807598
0.00763037
0.00704114
0.00641543
0.00580144
0.00523585
0.00472455
0.00427178
0.00387925
0.00354899
0.00327311
0.00305248
0.00286378
0.00269395
0.00254759
0.00243277
0.00233996
0.00226156
0.00219656
0.00214152
0.00209781
0.00205863
0.00202503
0.00199802
0.00197425
0.0019557
0.001939
0.00192547
0.00190879
0.00189107
0.00187245
0.00185208
0.00183144
0.00180931
0.00178676
0.00176085
0.00172679
0.00168451
0.00162947
0.00157427
0.00977081
0.00931642
0.00870585
0.00804371
0.00737701
0.00673966
0.00614355
0.0056041
0.00512212
0.00470492
0.00434823
0.00405699
0.00380507
0.00357726
0.0033813
0.00322462
0.00309655
0.00298824
0.00289656
0.00281685
0.00275321
0.00269914
0.0026535
0.00261641
0.00258099
0.00255197
0.00252501
0.00250155
0.00247959
0.00245837
0.00243392
0.00240602
0.00237642
0.00234372
0.00230953
0.00227259
0.00223001
0.00217697
0.00210775
0.00203727
0.0115049
0.0110458
0.010423
0.0097367
0.00903428
0.0083433
0.00768115
0.00706365
0.00649828
0.00599714
0.00555948
0.00519527
0.00487643
0.00458592
0.00433283
0.00412738
0.00395568
0.00380992
0.00368884
0.00358306
0.0034976
0.00342285
0.00335851
0.00330522
0.00325792
0.00321993
0.0031824
0.00314813
0.00311535
0.00308365
0.00305277
0.00301822
0.00298008
0.00293673
0.00289018
0.00283943
0.00278501
0.00271921
0.00263418
0.00254674
0.013274
0.0128132
0.0121845
0.0114835
0.0107568
0.0100278
0.00931285
0.00863241
0.0079954
0.00741779
0.00690144
0.00646358
0.00607503
0.00571757
0.00540055
0.00514009
0.00492178
0.00473439
0.0045784
0.0044399
0.00432531
0.00422807
0.00414422
0.00407329
0.00400877
0.00395476
0.00390581
0.00386191
0.00381798
0.0037742
0.00373145
0.00368707
0.0036402
0.00358612
0.00352672
0.00346107
0.00339075
0.00331081
0.00320835
0.00310217
0.0150737
0.0146136
0.0139837
0.0132749
0.0125316
0.0117777
0.0110238
0.0102932
0.00959383
0.00894731
0.0083601
0.00785168
0.00739329
0.00696574
0.00658303
0.00626483
0.005996
0.0057608
0.00556272
0.00538878
0.00524324
0.00511888
0.00500975
0.00491731
0.00483476
0.00476394
0.004699
0.00463996
0.00458435
0.00452873
0.00447299
0.00441502
0.00435607
0.00429071
0.00421782
0.00413641
0.00404852
0.00395206
0.00383005
0.00370323
0.0168997
0.0164424
0.015815
0.0151042
0.0143518
0.0135815
0.0127998
0.0120296
0.0112816
0.0105769
0.00992462
0.00934994
0.0088246
0.00832852
0.00787834
0.00749938
0.00717384
0.00688836
0.00664575
0.006432
0.00625038
0.00609421
0.00595758
0.00584099
0.00573571
0.00564474
0.00556303
0.00548716
0.00541529
0.00534524
0.00527617
0.00520359
0.00512929
0.00505021
0.00496275
0.00486463
0.00475796
0.00464273
0.00449906
0.00434974
0.0187478
0.0182949
0.017673
0.0169644
0.0162089
0.0154292
0.014629
0.0138299
0.0130436
0.0122894
0.0115823
0.0109483
0.0103606
0.00979851
0.00928081
0.00883856
0.00845585
0.00811729
0.00782644
0.00756707
0.00734683
0.00715655
0.00698776
0.0068428
0.00671345
0.00659919
0.00649561
0.00640226
0.00631281
0.00622501
0.00613969
0.00605199
0.00596101
0.005864
0.00576106
0.00564524
0.0055186
0.00538243
0.00521517
0.00504158
0.0206135
0.0201666
0.0195524
0.0188495
0.0180952
0.0173116
0.0165007
0.0156814
0.0148664
0.0140736
0.0133199
0.0126326
0.0119877
0.0113642
0.0107824
0.0102785
0.00983848
0.00944448
0.00910212
0.00879509
0.00853278
0.00830296
0.0080999
0.00792445
0.00776562
0.00762653
0.00749976
0.00738333
0.00727551
0.00716885
0.00706446
0.0069594
0.00685074
0.0067344
0.00661292
0.00647792
0.00633004
0.00617064
0.00597818
0.00577873
0.0224926
0.022053
0.0214486
0.0207541
0.0200046
0.0192206
0.0184055
0.0175736
0.0167364
0.0159155
0.0151232
0.0143924
0.0136976
0.0130183
0.0123763
0.0118124
0.0113133
0.010864
0.0104707
0.0101137
0.00980551
0.00953453
0.00929405
0.00908405
0.0088948
0.0087274
0.00857408
0.00843351
0.00830184
0.00817548
0.00805086
0.00792451
0.00779759
0.00766092
0.00751749
0.00736244
0.00719201
0.00700667
0.00678804
0.00656118
0.0243808
0.0239496
0.0233568
0.0226732
0.021932
0.0211521
0.0203368
0.0194984
0.0186471
0.0178047
0.0169827
0.0162152
0.0154763
0.0147471
0.0140502
0.0134305
0.0128754
0.0123718
0.0119247
0.0115175
0.0111635
0.010849
0.0105678
0.0103218
0.0100976
0.00990069
0.00971888
0.00955091
0.00939451
0.00924367
0.00909793
0.00894944
0.00880113
0.00864288
0.00847642
0.00829893
0.00810425
0.00789218
0.00764507
0.00738892
0.0262738
0.0258521
0.0252723
0.0246015
0.0238711
0.0230988
0.0222874
0.0214475
0.020588
0.0197297
0.0188864
0.0180888
0.0173148
0.0165429
0.0157972
0.015126
0.0145179
0.0139595
0.0134605
0.0130034
0.0126005
0.0122419
0.0119196
0.0116341
0.0113744
0.0111433
0.0109322
0.0107355
0.0105514
0.0103754
0.0102045
0.0100331
0.00985981
0.00967937
0.00948888
0.00928689
0.00906634
0.00882636
0.00854904
0.00826182
0.0281676
0.0277562
0.0271905
0.0265341
0.0258166
0.0250547
0.0242504
0.0234132
0.0225512
0.0216838
0.0208251
0.0200047
0.0192017
0.0183927
0.0176042
0.0168868
0.0162302
0.0156214
0.0150727
0.0145645
0.0141139
0.0137107
0.0133448
0.0130199
0.0127212
0.0124557
0.0122109
0.0119849
0.0117721
0.0115688
0.0113714
0.0111744
0.0109755
0.0107699
0.0105541
0.0103254
0.0100777
0.00980868
0.00949961
0.00917967
0.0300581
0.0296577
0.0291071
0.0284664
0.0277636
0.0270141
0.0262196
0.0253888
0.0245284
0.0236572
0.0227889
0.0219519
0.0211264
0.0202883
0.019464
0.0187062
0.0180055
0.0173501
0.0167525
0.0161958
0.0156989
0.0152496
0.014841
0.014474
0.0141369
0.0138338
0.0135554
0.0132963
0.0130541
0.012821
0.0125968
0.0123714
0.0121465
0.0119129
0.0116711
0.0114132
0.0111379
0.0108386
0.0104963
0.0101421
0.0319416
0.0315529
0.0310181
0.0303941
0.0297072
0.0289721
0.0281897
0.0273679
0.0265128
0.0256419
0.0247687
0.0239207
0.0230773
0.0222178
0.0213645
0.0205722
0.0198318
0.0191354
0.0184937
0.0178911
0.0173479
0.0168547
0.0164017
0.0159941
0.0156162
0.0152764
0.0149616
0.0146696
0.0143951
0.0141323
0.013879
0.0136247
0.0133715
0.0131093
0.0128396
0.0125518
0.0122467
0.0119157
0.0115387
0.0111488
0.0338146
0.0334381
0.0329197
0.0323132
0.0316434
0.0309239
0.0301554
0.0293452
0.0284984
0.0276313
0.0267564
0.0259034
0.0250488
0.0241725
0.0232949
0.0224738
0.0217013
0.0209666
0.020285
0.0196405
0.0190552
0.0185181
0.0180233
0.0175737
0.0171569
0.0167783
0.0164281
0.0161011
0.0157945
0.0155
0.0152149
0.0149318
0.0146482
0.0143575
0.0140583
0.0137397
0.0134033
0.0130391
0.0126262
0.0121992
0.0356737
0.0353098
0.0348083
0.03422
0.0335681
0.0328654
0.0321124
0.0313156
0.0304798
0.0296201
0.0287482
0.0278932
0.0270321
0.0261447
0.0252498
0.0244058
0.0236056
0.0228385
0.0221216
0.0214387
0.0208124
0.0202353
0.0196985
0.0192097
0.0187527
0.0183372
0.0179502
0.0175891
0.017249
0.0169207
0.0166048
0.016291
0.0159768
0.0156558
0.0153253
0.0149753
0.0146066
0.0142082
0.013758
0.0132927
0.037516
0.037165
0.0366807
0.036111
0.0354777
0.0347929
0.0340565
0.0332748
0.0324521
0.0316024
0.0307368
0.0298834
0.0290196
0.0281255
0.0272193
0.0263579
0.0255349
0.0247395
0.023993
0.0232767
0.0226142
0.0219981
0.0214231
0.0208947
0.0204006
0.0199474
0.0195254
0.0191294
0.0187543
0.0183937
0.0180456
0.0176991
0.0173548
0.0170026
0.0166385
0.0162572
0.0158555
0.0154217
0.0149334
0.0144287
0.0393385
0.0390007
0.0385339
0.0379833
0.0373692
0.0367029
0.035984
0.0352187
0.0344107
0.0335733
0.0327168
0.0318681
0.031005
0.0301073
0.0291955
0.0283218
0.0274805
0.0266641
0.0258903
0.0251445
0.0244515
0.0238015
0.0231894
0.0226252
0.0220939
0.021606
0.0211489
0.0207171
0.020309
0.0199153
0.0195337
0.0191561
0.0187805
0.0183956
0.0179985
0.0175846
0.0171487
0.0166788
0.0161514
0.0156064
0.0411388
0.0408143
0.0403652
0.0398338
0.0392395
0.0385931
0.0378919
0.0371437
0.0363518
0.0355286
0.0346837
0.0338426
0.0329839
0.0320874
0.031173
0.0302905
0.0294381
0.0286054
0.0278102
0.027039
0.0263163
0.0256372
0.024993
0.024394
0.0238294
0.0233072
0.0228148
0.0223503
0.021909
0.0214814
0.0210684
0.0206591
0.0202512
0.019832
0.0194029
0.0189556
0.0184848
0.0179779
0.0174107
0.0168247
0.0429147
0.0426036
0.0421721
0.0416599
0.0410853
0.0404584
0.0397763
0.0390464
0.038272
0.0374645
0.0366331
0.0358021
0.0349509
0.0340595
0.0331469
0.0322608
0.0314006
0.030556
0.0297442
0.0289524
0.0282051
0.0274978
0.0268262
0.026197
0.0256005
0.0250448
0.0245211
0.0240241
0.0235495
0.0230908
0.0226461
0.0222047
0.0217639
0.0213117
0.0208496
0.0203684
0.019862
0.0193175
0.0187101
0.0180824
0.0446643
0.0443667
0.0439527
0.0434598
0.042905
0.0422975
0.0416349
0.0409242
0.0401683
0.039378
0.0385618
0.037743
0.0369017
0.0360185
0.0351113
0.0342259
0.033362
0.0325093
0.0316848
0.030877
0.0301101
0.02938
0.0286822
0.0280273
0.0274008
0.0268163
0.0262621
0.0257332
0.0252288
0.0247392
0.0242628
0.0237894
0.0233151
0.0228313
0.0223364
0.0218209
0.0212785
0.0206961
0.0200481
0.0193785
0.0463861
0.0461018
0.0457053
0.0452318
0.0446974
0.0441089
0.043466
0.0427749
0.0420383
0.0412664
0.040467
0.0396621
0.0388329
0.0379606
0.037062
0.0361809
0.0353172
0.0344604
0.0336258
0.0328058
0.0320236
0.0312767
0.0305582
0.0298797
0.0292276
0.0286158
0.0280323
0.0274758
0.0269425
0.0264226
0.0259143
0.0254097
0.0249048
0.0243888
0.0238607
0.0233108
0.0227324
0.0221119
0.0214233
0.0207115
0.0480787
0.0478078
0.0474285
0.0469739
0.046459
0.0458902
0.0452674
0.0445965
0.0438801
0.0431277
0.0423465
0.0415569
0.0407417
0.0398825
0.0389953
0.0381217
0.0372619
0.0364053
0.0355666
0.0347389
0.0339451
0.0331823
0.0324477
0.0317478
0.0310744
0.0304375
0.02983
0.0292472
0.028686
0.0281365
0.0276004
0.0270661
0.0265303
0.0259812
0.0254201
0.0248362
0.0242218
0.0235633
0.0228342
0.0220803
0.0497413
0.0494836
0.0491216
0.0486861
0.0481898
0.0476405
0.0470378
0.0463875
0.0456919
0.0449601
0.0441992
0.0434257
0.0426259
0.0417819
0.0409083
0.040045
0.0391922
0.0383397
0.0375012
0.0366703
0.0358694
0.0350955
0.0343471
0.0336306
0.0329369
0.0322802
0.0316502
0.0310428
0.0304549
0.0298805
0.0293177
0.0287549
0.0281887
0.027605
0.0270122
0.0263948
0.0257449
0.0250485
0.0242793
0.0234835
0.0513731
0.0511286
0.0507838
0.0503659
0.0498884
0.0493588
0.0487764
0.048147
0.0474725
0.0467615
0.0460209
0.0452659
0.0444836
0.0436569
0.042799
0.0419485
0.0411055
0.0402602
0.0394256
0.0385956
0.0377916
0.0370107
0.0362509
0.0355231
0.0348139
0.0341392
0.0334887
0.0328583
0.0322488
0.0316509
0.0310628
0.0304729
0.0298773
0.0292611
0.0286349
0.0279846
0.0272998
0.0265659
0.0257572
0.02492
0.0529738
0.0527419
0.0524131
0.0520131
0.0515546
0.0510446
0.0504828
0.0498745
0.0492217
0.0485322
0.0478123
0.0470768
0.0463137
0.0455071
0.0446661
0.0438304
0.0429997
0.0421645
0.0413371
0.0405115
0.0397083
0.0389247
0.0381586
0.0374218
0.0367006
0.0360107
0.0353413
0.0346932
0.0340639
0.0334443
0.0328326
0.032217
0.0315935
0.0309461
0.0302853
0.0296038
0.0288849
0.0281141
0.0272665
0.0263884
0.0545439
0.0543248
0.054011
0.0536283
0.0531885
0.0526982
0.0521572
0.0515703
0.0509396
0.0502729
0.0495736
0.0488581
0.0481149
0.0473288
0.0465079
0.0456897
0.0448736
0.0440512
0.0432339
0.042416
0.0416169
0.0408343
0.0400658
0.0393234
0.0385934
0.0378914
0.0372079
0.0365441
0.0358971
0.0352578
0.0346241
0.0339846
0.0333346
0.0326578
0.0319645
0.0312512
0.0304986
0.0296916
0.028806
0.0278875
0.056083
0.0558758
0.0555774
0.055212
0.0547909
0.0543203
0.0538
0.0532346
0.0526261
0.0519816
0.0513045
0.0506102
0.049888
0.0491233
0.0483241
0.0475265
0.0467265
0.0459193
0.0451153
0.0443077
0.0435159
0.0427375
0.0419702
0.0412254
0.0404897
0.0397773
0.0390845
0.0384079
0.0377455
0.0370885
0.0364349
0.0357731
0.0350984
0.0343939
0.0336697
0.0329248
0.0321392
0.0312969
0.0303741
0.0294161
0.0575927
0.057397
0.0571136
0.0567654
0.0563628
0.0559119
0.0554125
0.054869
0.0542835
0.0536607
0.053006
0.0523339
0.0516347
0.0508915
0.0501148
0.0493381
0.0485573
0.0477681
0.0469813
0.0461864
0.0454043
0.0446332
0.0438705
0.0431261
0.0423882
0.0416702
0.0409693
0.0402823
0.0396068
0.0389342
0.0382626
0.0375804
0.0368827
0.0361523
0.0353987
0.0346225
0.0338051
0.0329288
0.0319698
0.0309731
0.0590743
0.0588899
0.0586212
0.0582898
0.0579056
0.0574743
0.0569959
0.0564748
0.0559109
0.0553107
0.0546791
0.0540299
0.0533533
0.0526339
0.0518813
0.0511268
0.0503669
0.049597
0.0488285
0.0480514
0.0472816
0.0465207
0.0457663
0.0450241
0.044287
0.0435673
0.0428608
0.0421654
0.041479
0.040793
0.0401054
0.0394048
0.0386859
0.0379313
0.0371498
0.0363417
0.0354948
0.0345858
0.0335918
0.0325574
0.0605297
0.0603562
0.0601019
0.0597871
0.0594211
0.0590095
0.0585522
0.0580519
0.0575102
0.0569334
0.056326
0.055701
0.0550471
0.0543524
0.053626
0.0528945
0.0521577
0.0514076
0.050658
0.0498996
0.0491474
0.0483995
0.0476536
0.0469177
0.0461849
0.0454679
0.0447575
0.0440559
0.0433607
0.0426634
0.0419619
0.0412448
0.0405065
0.0397294
0.0389219
0.0380841
0.0372076
0.0362669
0.035239
0.0341678
0.0619608
0.061798
0.0615579
0.0612593
0.0609115
0.0605195
0.0600819
0.0596028
0.0590838
0.0585308
0.0579487
0.057347
0.0567173
0.0560482
0.055348
0.0546415
0.0539283
0.0532009
0.0524719
0.0517329
0.0509985
0.0502661
0.0495328
0.0488065
0.0480811
0.0473677
0.0466579
0.0459526
0.0452508
0.0445443
0.0438309
0.0430991
0.0423432
0.0415454
0.0407135
0.0398479
0.0389421
0.0379708
0.0369102
0.0358034
0.0633698
0.0632176
0.0629914
0.062709
0.0623792
0.0620054
0.0615879
0.0611304
0.0606345
0.0601055
0.0595479
0.0589709
0.0583669
0.0577251
0.0570511
0.0563715
0.0556825
0.0549803
0.0542727
0.0535543
0.0528389
0.0521237
0.0514058
0.0506918
0.0499769
0.0492681
0.0485626
0.0478551
0.0471488
0.0464351
0.0457117
0.044967
0.0441951
0.0433781
0.0425234
0.0416315
0.0406966
0.0396966
0.0386045
0.037463
0.0647587
0.0646174
0.0644056
0.0641389
0.0638256
0.0634703
0.0630732
0.0626381
0.0621665
0.0616618
0.0611282
0.0605764
0.059999
0.0593835
0.0587372
0.0580844
0.0574216
0.056745
0.0560628
0.0553663
0.0546713
0.0539749
0.0532749
0.0525747
0.0518694
0.0511681
0.050468
0.0497628
0.0490544
0.0483354
0.0476037
0.0468478
0.0460615
0.0452267
0.0443507
0.043434
0.0424723
0.0414436
0.0403208
0.0391458
0.0661307
0.0659995
0.065801
0.0655498
0.0652538
0.0649175
0.0645413
0.0641289
0.0636801
0.0631998
0.062692
0.0621667
0.061615
0.0610274
0.0604106
0.0597849
0.0591499
0.0584987
0.0578416
0.0571708
0.0564984
0.0558218
0.0551379
0.0544526
0.0537601
0.0530692
0.0523762
0.0516768
0.0509678
0.0502451
0.0495068
0.0487412
0.0479417
0.0470903
0.046194
0.0452541
0.0442671
0.0432108
0.0420583
0.0408507
0.0674901
0.0673686
0.067183
0.0669472
0.0666685
0.0663513
0.0659963
0.0656053
0.0651798
0.0647246
0.0642433
0.0637435
0.0632188
0.0626604
0.0620721
0.0614756
0.0608678
0.0602447
0.0596126
0.0589668
0.0583175
0.0576624
0.0569974
0.0563285
0.0556511
0.0549737
0.0542882
0.0535943
0.0528891
0.0521641
0.0514209
0.0506471
0.0498355
0.0489678
0.0480524
0.0470906
0.0460795
0.0449967
0.0438158
0.0425769
0.068841
0.0687289
0.068556
0.0683355
0.0680748
0.0677764
0.0674411
0.0670719
0.0666703
0.0662408
0.0657849
0.0653114
0.0648147
0.0642841
0.0637258
0.0631574
0.062579
0.0619834
0.0613795
0.0607598
0.0601335
0.0595016
0.058857
0.0582048
0.0575446
0.0568795
0.0562052
0.0555167
0.054815
0.054092
0.0533459
0.0525652
0.0517424
0.0508581
0.0499246
0.0489425
0.0479082
0.0468001
0.0455922
0.0443232
0.0701875
0.0700843
0.0699237
0.0697185
0.0694742
0.0691945
0.0688799
0.0685338
0.068156
0.0677509
0.0673218
0.0668749
0.0664048
0.0659034
0.0653734
0.0648339
0.0642843
0.0637187
0.0631417
0.0625489
0.0619486
0.0613382
0.0607141
0.0600824
0.0594384
0.0587884
0.0581244
0.0574451
0.0567468
0.056025
0.0552767
0.05449
0.0536568
0.0527588
0.051809
0.0508089
0.0497515
0.0486199
0.0473865
0.0460888
0.0715335
0.0714387
0.0712897
0.071099
0.0708716
0.0706114
0.0703174
0.0699928
0.0696385
0.069259
0.0688552
0.0684352
0.0679937
0.0675204
0.0670201
0.0665107
0.0659892
0.0654523
0.0649043
0.064339
0.0637637
0.0631761
0.0625722
0.0619603
0.061335
0.0606986
0.0600478
0.0593766
0.0586856
0.0579651
0.0572153
0.056423
0.055579
0.0546689
0.0537045
0.0526871
0.051607
0.050455
0.0491979
0.0478728
0.0728831
0.0727962
0.0726585
0.0724819
0.0722716
0.0720295
0.0717561
0.0714543
0.0711237
0.0707684
0.0703906
0.0699981
0.0695839
0.0691407
0.0686704
0.0681896
0.0676978
0.0671891
0.0666675
0.0661294
0.0655779
0.0650134
0.0644333
0.063842
0.0632336
0.062612
0.0619736
0.0613125
0.0606288
0.059913
0.0591628
0.0583653
0.0575081
0.0565876
0.05561
0.0545767
0.0534774
0.0523059
0.0510257
0.0496741
0.0742408
0.0741615
0.0740344
0.0738712
0.0736772
0.0734542
0.0732013
0.0729207
0.0726138
0.0722842
0.0719326
0.071566
0.0711797
0.0707647
0.0703252
0.069874
0.0694108
0.0689292
0.0684351
0.0679218
0.0673957
0.0668537
0.0662962
0.0657259
0.0651373
0.0645319
0.063905
0.0632554
0.0625786
0.061865
0.0611144
0.0603124
0.0594457
0.0585146
0.0575246
0.0564768
0.0553605
0.0541722
0.0528689
0.0514918
0.0756113
0.0755391
0.0754219
0.0752713
0.0750925
0.0748875
0.0746556
0.0743973
0.0741137
0.073808
0.073483
0.0731429
0.0727829
0.0723968
0.0719857
0.0715642
0.0711286
0.0706765
0.0702079
0.0697194
0.0692167
0.0686996
0.0681655
0.0676157
0.067044
0.0664555
0.065842
0.0652025
0.0645312
0.0638224
0.0630719
0.0622654
0.0613892
0.0604483
0.0594472
0.0583862
0.0572545
0.056049
0.0547253
0.0533246
0.0769993
0.0769335
0.0768255
0.0766866
0.0765219
0.0763335
0.076121
0.0758851
0.0756249
0.0753436
0.0750433
0.0747301
0.074397
0.0740385
0.0736556
0.0732621
0.0728542
0.0724266
0.0719843
0.0715201
0.0710427
0.0705485
0.0700385
0.0695093
0.0689553
0.0683806
0.0677811
0.0671505
0.0664873
0.0657813
0.0650302
0.0642186
0.0633359
0.0623872
0.0613764
0.0603037
0.0591582
0.0579363
0.0565938
0.0551713
0.0784089
0.0783489
0.0782494
0.0781213
0.0779695
0.0777965
0.0776017
0.077386
0.0771485
0.0768921
0.0766169
0.0763291
0.0760219
0.0756892
0.0753341
0.074967
0.0745839
0.0741825
0.0737647
0.0733266
0.0728727
0.0724029
0.0719144
0.0714049
0.0708684
0.0703089
0.0697206
0.0691009
0.0684439
0.0677434
0.0669914
0.0661717
0.0652846
0.0643298
0.0633109
0.0622281
0.0610706
0.0598333
0.0584735
0.0570308
0.0798434
0.0797887
0.0796969
0.0795787
0.0794389
0.0792799
0.0791014
0.0789045
0.0786887
0.0784552
0.0782038
0.0779396
0.0776584
0.0773524
0.0770221
0.0766798
0.0763214
0.0759441
0.0755521
0.075138
0.074709
0.0742614
0.0737916
0.0733
0.0727805
0.0722374
0.0716619
0.0710506
0.0704019
0.069705
0.0689509
0.0681265
0.067235
0.066275
0.0652494
0.064158
0.0629912
0.061739
0.0603632
0.058902
0.0813051
0.0812551
0.0811703
0.0810612
0.0809323
0.0807861
0.0806224
0.0804421
0.080245
0.0800324
0.0798043
0.0795642
0.0793058
0.0790238
0.0787179
0.0783989
0.0780649
0.0777134
0.0773454
0.0769564
0.0765499
0.0761233
0.0756726
0.0751985
0.0746946
0.0741639
0.073602
0.0730003
0.0723577
0.0716624
0.0709082
0.0700799
0.0691851
0.0682214
0.0671904
0.0660919
0.064916
0.0636514
0.0622615
0.0607838
0.0827951
0.0827493
0.082671
0.0825702
0.0824514
0.0823168
0.0821664
0.0820009
0.0818204
0.0816258
0.0814174
0.0811983
0.0809628
0.080703
0.0804209
0.0801269
0.0798172
0.0794889
0.0791463
0.0787796
0.0783928
0.0779855
0.0775531
0.0770958
0.0766071
0.0760891
0.0755379
0.0749454
0.0743073
0.0736159
0.0728578
0.0720293
0.0711333
0.0701673
0.0691326
0.0680283
0.0668445
0.0655693
0.0641672
0.0626748
0.0843135
0.0842715
0.084199
0.0841058
0.0839963
0.0838724
0.083734
0.083582
0.0834161
0.0832375
0.0830463
0.0828457
0.0826302
0.0823929
0.0821335
0.0818615
0.0815756
0.0812703
0.0809474
0.0805993
0.080233
0.0798445
0.0794296
0.0789883
0.078514
0.0780082
0.0774655
0.0768826
0.076251
0.0755622
0.0748023
0.0739738
0.073078
0.0721114
0.0710746
0.0699661
0.0687757
0.0674914
0.0660788
0.0645739
0.0858592
0.0858205
0.0857534
0.0856673
0.0855661
0.085452
0.0853245
0.0851847
0.085032
0.0848675
0.0846915
0.0845069
0.0843086
0.0840904
0.0838527
0.0836026
0.0833371
0.0830507
0.0827466
0.0824171
0.0820688
0.0816976
0.081299
0.0808725
0.0804119
0.0799181
0.0793852
0.0788088
0.0781843
0.0774962
0.0767379
0.0759117
0.0750178
0.0740523
0.0730151
0.0719039
0.0707083
0.0694164
0.0679951
0.0664797
0.0874299
0.0873942
0.0873321
0.0872524
0.087159
0.0870537
0.0869362
0.0868073
0.0866665
0.0865147
0.086352
0.0861812
0.0859975
0.0857951
0.0855742
0.0853415
0.0850938
0.0848265
0.0845403
0.0842285
0.0838971
0.0835417
0.0831579
0.0827452
0.0822971
0.0818153
0.0812927
0.0807242
0.080105
0.0794167
0.0786633
0.0778415
0.0769513
0.0759887
0.0749528
0.0738403
0.0726407
0.0713428
0.0699146
0.0683908
0.0890225
0.0889896
0.0889319
0.0888582
0.0887718
0.0886746
0.0885662
0.0884471
0.0883169
0.0881764
0.0880255
0.0878669
0.0876959
0.0875068
0.0873
0.0870816
0.0868484
0.0865962
0.0863256
0.0860308
0.0857147
0.0853736
0.0850033
0.0846032
0.0841658
0.0836964
0.0831841
0.0826241
0.0820096
0.0813261
0.0805783
0.0797623
0.0788773
0.077919
0.0768868
0.075774
0.0745711
0.0732688
0.0718356
0.0703058
0.0906331
0.0906027
0.0905492
0.0904808
0.0904009
0.090311
0.0902108
0.0901006
0.08998
0.0898495
0.0897091
0.0895612
0.0894012
0.0892238
0.0890291
0.0888227
0.0886018
0.0883622
0.0881042
0.0878226
0.0875193
0.0871905
0.0868324
0.0864441
0.0860195
0.0855592
0.0850563
0.0845051
0.0838984
0.0832224
0.082482
0.0816729
0.0807943
0.0798419
0.0788163
0.0777032
0.076497
0.0751928
0.0737567
0.072223
0.0922573
0.0922291
0.0921794
0.0921159
0.0920419
0.0919587
0.0918658
0.0917636
0.0916515
0.09153
0.0913989
0.0912605
0.0911102
0.090943
0.0907589
0.0905631
0.0903528
0.0901239
0.0898767
0.089606
0.0893136
0.0889955
0.0886481
0.0882704
0.0878564
0.0874059
0.0869124
0.0863703
0.0857723
0.0851051
0.0843731
0.0835722
0.0827011
0.0817553
0.0807355
0.0796251
0.0784191
0.0771138
0.0756762
0.0741408
0.0938903
0.0938641
0.0938178
0.0937588
0.0936901
0.0936129
0.0935266
0.0934316
0.0933271
0.0932136
0.0930908
0.0929607
0.0928191
0.0926609
0.0924861
0.0922996
0.0920986
0.0918792
0.0916414
0.0913804
0.0910975
0.090789
0.0904512
0.0900829
0.0896786
0.0892373
0.088753
0.0882201
0.0876313
0.0869736
0.0862509
0.0854589
0.084596
0.0836578
0.0826442
0.0815383
0.0803346
0.0790298
0.0775924
0.0760576
0.095527
0.0955025
0.0954594
0.0954045
0.0953406
0.0952688
0.0951885
0.0950998
0.0950022
0.0948958
0.0947804
0.0946578
0.0945237
0.0943736
0.0942072
0.094029
0.0938363
0.0936253
0.093396
0.0931435
0.0928693
0.0925694
0.0922404
0.0918809
0.0914855
0.0910532
0.0905779
0.0900541
0.0894746
0.0888267
0.0881138
0.0873315
0.0864778
0.0855479
0.0845415
0.0834413
0.0822415
0.0809388
0.0795033
0.0779712
0.0971625
0.0971396
0.0970993
0.0970482
0.0969886
0.0969216
0.0968467
0.0967638
0.0966722
0.0965722
0.0964634
0.0963474
0.0962201
0.0960772
0.0959183
0.0957476
0.0955623
0.095359
0.0951374
0.0948928
0.0946265
0.0943347
0.0940139
0.0936627
0.0932758
0.0928521
0.0923856
0.0918709
0.0913009
0.0906631
0.0899605
0.0891883
0.0883445
0.087424
0.0864257
0.0853324
0.0841378
0.0828388
0.0814069
0.0798798
0.0987917
0.0987703
0.0987327
0.098685
0.0986294
0.0985668
0.0984966
0.0984189
0.0983328
0.0982385
0.0981356
0.0980255
0.0979043
0.0977679
0.0976158
0.0974519
0.0972735
0.0970771
0.0968626
0.0966254
0.0963665
0.0960823
0.0957693
0.0954261
0.0950475
0.0946322
0.0941745
0.0936689
0.0931085
0.0924811
0.0917891
0.0910278
0.0901946
0.0892846
0.0882952
0.0872097
0.0860216
0.0847277
0.0833012
0.0817813
0.10041
0.10039
0.100355
0.100311
0.100259
0.1002
0.100134
0.100061
0.0999798
0.0998907
0.0997931
0.0996883
0.0995726
0.0994421
0.0992963
0.0991386
0.0989665
0.0987767
0.0985688
0.0983385
0.0980867
0.0978097
0.0975042
0.0971688
0.0967983
0.0963914
0.0959424
0.0954461
0.0948955
0.0942788
0.0935978
0.0928478
0.0920262
0.0911282
0.0901484
0.0890713
0.0878908
0.0866034
0.085184
0.0836734
0.102014
0.101996
0.101963
0.101921
0.101872
0.101817
0.101755
0.101686
0.10161
0.101525
0.101432
0.101332
0.101222
0.101097
0.100957
0.100805
0.100638
0.100455
0.100253
0.10003
0.0997844
0.0995145
0.0992164
0.0988886
0.0985261
0.0981276
0.0976875
0.0972006
0.0966601
0.0960544
0.0953849
0.0946467
0.0938373
0.0929538
0.0919828
0.0909149
0.0897432
0.0884639
0.0870532
0.0855541
0.1036
0.103582
0.103551
0.103512
0.103466
0.103415
0.103356
0.103291
0.103219
0.103138
0.10305
0.102954
0.102849
0.102728
0.102594
0.102447
0.102287
0.102109
0.101913
0.101696
0.101458
0.101194
0.100904
0.100583
0.100229
0.0998389
0.0994077
0.0989304
0.0984004
0.0978062
0.0971486
0.0964225
0.0956254
0.0947546
0.0937951
0.0927381
0.0915767
0.0903071
0.0889069
0.0874212
0.105164
0.105147
0.105118
0.105081
0.105038
0.10499
0.104935
0.104873
0.104804
0.104728
0.104644
0.104552
0.10445
0.104335
0.104206
0.104064
0.103909
0.103737
0.103547
0.103336
0.103104
0.102848
0.102564
0.102251
0.101905
0.101523
0.101101
0.100634
0.100115
0.0995325
0.0988872
0.0981735
0.097389
0.0965308
0.0955838
0.0945389
0.0933893
0.0921309
0.0907429
0.0892727
0.106703
0.106688
0.10666
0.106626
0.106585
0.10654
0.106487
0.106429
0.106364
0.106291
0.106211
0.106123
0.106025
0.105915
0.10579
0.105653
0.105503
0.105336
0.105152
0.104947
0.104722
0.104472
0.104196
0.103891
0.103552
0.103179
0.102767
0.102309
0.101801
0.101232
0.100599
0.0998981
0.0991264
0.0982811
0.0973473
0.0963159
0.0951792
0.0939337
0.0925596
0.0911066
0.108216
0.108201
0.108176
0.108143
0.108105
0.108062
0.108013
0.107957
0.107895
0.107826
0.107749
0.107665
0.107571
0.107465
0.107345
0.107213
0.107068
0.106906
0.106728
0.106529
0.106309
0.106067
0.105797
0.1055
0.10517
0.104806
0.104402
0.103955
0.103459
0.102905
0.102283
0.101594
0.100836
0.100004
0.0990843
0.0980673
0.0969445
0.0957138
0.0943553
0.0929212
0.1097
0.109686
0.109662
0.109632
0.109596
0.109555
0.109508
0.109456
0.109397
0.109331
0.109257
0.109177
0.109087
0.108984
0.108869
0.108742
0.108601
0.108445
0.108272
0.108079
0.107866
0.10763
0.107368
0.107078
0.106756
0.106401
0.106007
0.10557
0.105085
0.104544
0.103936
0.103261
0.102516
0.101698
0.100793
0.099792
0.0986851
0.0974703
0.0961287
0.0947149
0.111154
0.111141
0.111118
0.11109
0.111056
0.111017
0.110973
0.110923
0.110867
0.110804
0.110734
0.110657
0.11057
0.110472
0.110361
0.110238
0.110102
0.109951
0.109784
0.109597
0.10939
0.10916
0.108905
0.108623
0.10831
0.107963
0.107579
0.107153
0.10668
0.106151
0.105557
0.104896
0.104166
0.103361
0.102473
0.101489
0.100399
0.0992019
0.0978785
0.096486
0.112576
0.112564
0.112543
0.112516
0.112484
0.112448
0.112406
0.112359
0.112305
0.112245
0.112178
0.112104
0.112021
0.111927
0.11182
0.111701
0.11157
0.111424
0.111262
0.111081
0.11088
0.110657
0.11041
0.110135
0.109831
0.109493
0.109119
0.108703
0.108242
0.107726
0.107145
0.1065
0.105786
0.104995
0.104124
0.103157
0.102086
0.100908
0.0996035
0.0982332
0.113966
0.113954
0.113935
0.113909
0.11388
0.113845
0.113806
0.113761
0.11371
0.113653
0.113589
0.113518
0.113439
0.113348
0.113245
0.113131
0.113004
0.112863
0.112706
0.112531
0.112336
0.11212
0.11188
0.111614
0.111317
0.110989
0.110625
0.11022
0.10977
0.109267
0.108702
0.108072
0.107374
0.1066
0.105743
0.104795
0.103746
0.102587
0.101303
0.0999549
0.115323
0.115312
0.115293
0.11527
0.115242
0.115209
0.115172
0.11513
0.115081
0.115027
0.114966
0.114898
0.114822
0.114734
0.114635
0.114526
0.114404
0.114268
0.114116
0.113946
0.113758
0.113549
0.113316
0.113057
0.112769
0.11245
0.112096
0.111702
0.111264
0.110775
0.110224
0.109611