/*--------------------------------*- C++ -*----------------------------------*\
| =========                 |                                                 |
| \\      /  F ield         | OpenFOAM: The Open Source CFD Toolbox           |
|  \\    /   O peration     | Version:  5.x                                   |
|   \\  /    A nd           | Web:      www.OpenFOAM.org                      |
|    \\/     M anipulation  |                                                 |
\*---------------------------------------------------------------------------*/
FoamFile
{
    version     2.0;
    format      ascii;
    class       volScalarField;
    location    "300";
    object      p;
}
// * * * * * * * * * * * * * * * * * * * * * * * * * * * * * * * * * * * * * //

dimensions      [0 2 -2 0 0 0 0];

internalField   nonuniform List<scalar> 
26000
(
-0.000348036
0.0327547
-0.163535
-0.434285
-0.685186
-0.895699
-1.06912
-1.21849
-1.3409
-1.4472
-1.538
-1.61544
-1.68877
-1.73629
-1.78975
-1.84381
-1.88549
-1.92155
-1.95299
-1.9818
-2.00741
-2.0294
-2.04922
-2.06642
-2.08156
-2.09504
-2.10671
-2.11704
-2.12574
-2.13286
-2.13902
-2.1439
-2.14792
-2.15071
-2.1527
-2.15383
-2.15425
-2.15349
-2.15283
-2.14501
-0.386197
-0.257125
-0.255957
-0.345991
-0.492001
-0.66166
-0.834844
-0.997878
-1.14556
-1.27422
-1.38606
-1.4797
-1.56642
-1.63961
-1.70376
-1.76124
-1.81278
-1.85736
-1.89584
-1.93049
-1.96057
-1.98741
-2.01105
-2.03176
-2.05024
-2.06628
-2.08056
-2.09291
-2.10356
-2.11251
-2.12013
-2.12651
-2.13171
-2.1358
-2.1388
-2.14096
-2.14223
-2.14262
-2.14271
-2.13726
-0.679721
-0.555112
-0.479487
-0.472573
-0.532528
-0.63922
-0.774451
-0.91875
-1.06151
-1.19319
-1.31114
-1.41238
-1.50265
-1.58531
-1.65604
-1.71784
-1.7731
-1.82221
-1.8644
-1.90197
-1.935
-1.96399
-1.9898
-2.01235
-2.03238
-2.04993
-2.06534
-2.07888
-2.09057
-2.10053
-2.10901
-2.11616
-2.12208
-2.12681
-2.13044
-2.13311
-2.1349
-2.13567
-2.13593
-2.13249
-0.831494
-0.741389
-0.663528
-0.619328
-0.621771
-0.668655
-0.754061
-0.863577
-0.986457
-1.11008
-1.22742
-1.33248
-1.42727
-1.51735
-1.59615
-1.66355
-1.72329
-1.77716
-1.82389
-1.86551
-1.902
-1.93399
-1.96256
-1.98754
-2.00973
-2.02919
-2.04624
-2.06128
-2.0743
-2.08552
-2.09509
-2.10321
-2.11
-2.11553
-2.1199
-2.12323
-2.12561
-2.12692
-2.12771
-2.12561
-0.949345
-0.881956
-0.815194
-0.762129
-0.735522
-0.741068
-0.782078
-0.852487
-0.945923
-1.0513
-1.15944
-1.2625
-1.35777
-1.45163
-1.53636
-1.60933
-1.67344
-1.7317
-1.78271
-1.82828
-1.86831
-1.90334
-1.93472
-1.96219
-1.98659
-2.00802
-2.02676
-2.04335
-2.05775
-2.07025
-2.08095
-2.09009
-2.09779
-2.10414
-2.10927
-2.11325
-2.11625
-2.11813
-2.11941
-2.11839
-1.04124
-0.989805
-0.935541
-0.885668
-0.848953
-0.83206
-0.841794
-0.878317
-0.940441
-1.02145
-1.11295
-1.20746
-1.29822
-1.39159
-1.47886
-1.55589
-1.62376
-1.68591
-1.74077
-1.79009
-1.83361
-1.8717
-1.90593
-1.93594
-1.96261
-1.98609
-2.0066
-2.02481
-2.04064
-2.05445
-2.06635
-2.07654
-2.08521
-2.09242
-2.09834
-2.10302
-2.10665
-2.10913
-2.11093
-2.11082
-1.11585
-1.07552
-1.0318
-0.988697
-0.951419
-0.925126
-0.916425
-0.928375
-0.963321
-1.01918
-1.09006
-1.17086
-1.25225
-1.34062
-1.42665
-1.50535
-1.57564
-1.64082
-1.69889
-1.7515
-1.79831
-1.83935
-1.8764
-1.90894
-1.93791
-1.9635
-1.98583
-2.00573
-2.02303
-2.0382
-2.05133
-2.06262
-2.07229
-2.08039
-2.08714
-2.09254
-2.09684
-2.09994
-2.10229
-2.10295
-1.17802
-1.14573
-1.11025
-1.07407
-1.04005
-1.01165
-0.993936
-0.990539
-1.00522
-1.03918
-1.08932
-1.15381
-1.22238
-1.30178
-1.38273
-1.46015
-1.53083
-1.59767
-1.65804
-1.71329
-1.76297
-1.80671
-1.84643
-1.88143
-1.91267
-1.94036
-1.96455
-1.98616
-2.00499
-2.02155
-2.03594
-2.04835
-2.05905
-2.06807
-2.07567
-2.08184
-2.08682
-2.09056
-2.09348
-2.09484
-1.23088
-1.2046
-1.1755
-1.14534
-1.11565
-1.08863
-1.06774
-1.05608
-1.05743
-1.07462
-1.10667
-1.1548
-1.20908
-1.27675
-1.34936
-1.42254
-1.49125
-1.55802
-1.61943
-1.67638
-1.72829
-1.77432
-1.81643
-1.85372
-1.88713
-1.91687
-1.9429
-1.96622
-1.98659
-2.00456
-2.02023
-2.0338
-2.04555
-2.05551
-2.06398
-2.07093
-2.07661
-2.081
-2.08452
-2.08653
-1.27646
-1.2548
-1.23071
-1.20553
-1.18009
-1.15579
-1.13485
-1.11963
-1.1132
-1.11883
-1.13677
-1.17037
-1.21079
-1.26559
-1.32773
-1.39418
-1.45864
-1.52337
-1.58431
-1.64178
-1.69509
-1.7428
-1.78688
-1.82619
-1.86157
-1.89325
-1.92104
-1.94604
-1.96793
-1.98731
-2.00427
-2.019
-2.03182
-2.04273
-2.05208
-2.05982
-2.06623
-2.07129
-2.07542
-2.07805
-1.31623
-1.29821
-1.27809
-1.25699
-1.23534
-1.21405
-1.19454
-1.17848
-1.16815
-1.16655
-1.17444
-1.19628
-1.22462
-1.26691
-1.31777
-1.37582
-1.43415
-1.49498
-1.55388
-1.61056
-1.66423
-1.71286
-1.75834
-1.79926
-1.83633
-1.86975
-1.89918
-1.92578
-1.94914
-1.96989
-1.98812
-2.00401
-2.0179
-2.02978
-2.04001
-2.04855
-2.0557
-2.06143
-2.06618
-2.06941
-1.35126
-1.33615
-1.31923
-1.30147
-1.28307
-1.26466
-1.24714
-1.23167
-1.21987
-1.2142
-1.21552
-1.22854
-1.24718
-1.27838
-1.3183
-1.36724
-1.41824
-1.47368
-1.52906
-1.58361
-1.63654
-1.68521
-1.73139
-1.77342
-1.81179
-1.84668
-1.87756
-1.90562
-1.93036
-1.95243
-1.97189
-1.98892
-2.00386
-2.01669
-2.0278
-2.03715
-2.04503
-2.05144
-2.05683
-2.06064
-1.38235
-1.3696
-1.3553
-1.34029
-1.32464
-1.30882
-1.29339
-1.27917
-1.26728
-1.25965
-1.25702
-1.26383
-1.27521
-1.29728
-1.32746
-1.36741
-1.41064
-1.45971
-1.51042
-1.56165
-1.61273
-1.66051
-1.70662
-1.74914
-1.78835
-1.82436
-1.85644
-1.88577
-1.91176
-1.93504
-1.95567
-1.97379
-1.98975
-2.00353
-2.01551
-2.02565
-2.03426
-2.04135
-2.04737
-2.05175
-1.41012
-1.39933
-1.38719
-1.37444
-1.36112
-1.34756
-1.33412
-1.32139
-1.31015
-1.30185
-1.2971
-1.29977
-1.30601
-1.321
-1.34306
-1.3748
-1.41046
-1.45277
-1.49804
-1.54503
-1.59328
-1.63929
-1.68453
-1.72689
-1.76641
-1.80312
-1.83609
-1.86645
-1.89352
-1.91789
-1.93959
-1.95873
-1.97567
-1.99034
-2.00318
-2.01409
-2.02343
-2.03118
-2.03782
-2.04276
-1.43509
-1.42591
-1.41557
-1.40472
-1.39336
-1.38175
-1.37011
-1.3589
-1.34863
-1.34042
-1.33473
-1.33479
-1.3376
-1.34736
-1.363
-1.38766
-1.41641
-1.45208
-1.49162
-1.53379
-1.57845
-1.62191
-1.66552
-1.70707
-1.74633
-1.78329
-1.81678
-1.84789
-1.87582
-1.90111
-1.92376
-1.94383
-1.96167
-1.9772
-1.99085
-2.00251
-2.01255
-2.02095
-2.02821
-2.0337
-1.45764
-1.44982
-1.44098
-1.43173
-1.42203
-1.4121
-1.40206
-1.39227
-1.38309
-1.37537
-1.36946
-1.36799
-1.36863
-1.37467
-1.38548
-1.4043
-1.42708
-1.45661
-1.4905
-1.52762
-1.56818
-1.60851
-1.64985
-1.68997
-1.72842
-1.76514
-1.79876
-1.8303
-1.85884
-1.88487
-1.90831
-1.92919
-1.94785
-1.96417
-1.97858
-1.99096
-2.00166
-2.01069
-2.01855
-2.02457
-1.47808
-1.47141
-1.46385
-1.45595
-1.44766
-1.43916
-1.43053
-1.42204
-1.41396
-1.40692
-1.40121
-1.39893
-1.39826
-1.40177
-1.40906
-1.42327
-1.4411
-1.46521
-1.49381
-1.52598
-1.56221
-1.59902
-1.6376
-1.67575
-1.71289
-1.74891
-1.78226
-1.81389
-1.84277
-1.8693
-1.89336
-1.91493
-1.9343
-1.95133
-1.96643
-1.97948
-1.99082
-2.00044
-2.00887
-2.01541
-1.4967
-1.491
-1.48452
-1.47777
-1.47068
-1.46342
-1.45601
-1.44869
-1.44163
-1.43535
-1.43006
-1.42743
-1.42607
-1.42791
-1.43272
-1.44338
-1.45725
-1.47675
-1.50064
-1.52815
-1.56007
-1.59321
-1.62868
-1.66446
-1.69986
-1.73474
-1.76745
-1.79882
-1.82775
-1.85456
-1.87904
-1.90113
-1.92109
-1.93874
-1.95446
-1.96812
-1.98004
-1.99023
-1.9992
-2.00623
-1.5137
-1.50883
-1.50328
-1.49751
-1.49146
-1.48525
-1.4789
-1.47261
-1.4665
-1.46097
-1.4562
-1.45352
-1.45186
-1.45263
-1.45576
-1.46375
-1.47453
-1.49024
-1.51004
-1.53337
-1.56119
-1.59067
-1.62289
-1.65602
-1.68934
-1.72271
-1.75444
-1.78523
-1.81392
-1.84075
-1.86546
-1.8879
-1.90832
-1.92647
-1.94272
-1.95692
-1.96938
-1.98009
-1.98957
-1.99705
-1.52927
-1.52511
-1.52036
-1.51544
-1.51027
-1.50497
-1.49955
-1.49416
-1.4889
-1.48409
-1.47988
-1.47732
-1.47559
-1.47573
-1.47774
-1.48377
-1.49218
-1.50484
-1.52122
-1.54089
-1.56494
-1.59092
-1.61988
-1.65024
-1.68125
-1.71283
-1.74327
-1.77318
-1.80137
-1.82798
-1.8527
-1.87533
-1.89605
-1.91459
-1.93128
-1.94594
-1.95888
-1.97005
-1.97999
-1.9879
-1.54357
-1.54003
-1.53597
-1.53177
-1.52736
-1.52284
-1.51823
-1.51363
-1.50913
-1.50498
-1.50133
-1.49898
-1.49733
-1.49713
-1.49842
-1.50302
-1.50966
-1.51991
-1.53346
-1.55002
-1.57071
-1.59346
-1.61928
-1.64684
-1.67543
-1.70502
-1.73393
-1.76271
-1.79015
-1.81631
-1.84084
-1.86348
-1.88435
-1.90315
-1.92018
-1.93522
-1.94856
-1.96014
-1.97049
-1.9788
-1.55673
-1.55372
-1.55026
-1.54668
-1.54293
-1.5391
-1.53518
-1.53127
-1.52745
-1.5239
-1.52076
-1.51869
-1.5172
-1.51685
-1.5177
-1.52128
-1.52659
-1.53496
-1.54622
-1.56019
-1.57794
-1.59779
-1.62067
-1.6455
-1.67165
-1.69913
-1.72636
-1.7538
-1.78028
-1.80579
-1.82994
-1.8524
-1.87328
-1.89222
-1.90947
-1.9248
-1.93847
-1.9504
-1.96111
-1.96977
-1.56887
-1.56632
-1.56337
-1.56034
-1.55716
-1.55391
-1.5506
-1.54729
-1.54406
-1.54106
-1.53841
-1.53661
-1.53534
-1.53495
-1.53556
-1.5384
-1.54275
-1.54965
-1.55908
-1.57091
-1.58615
-1.60343
-1.62364
-1.64589
-1.66965
-1.695
-1.72044
-1.7464
-1.77175
-1.79642
-1.82001
-1.84215
-1.86288
-1.88183
-1.89919
-1.91472
-1.92864
-1.94085
-1.95187
-1.96084
-1.58009
-1.57794
-1.57544
-1.57287
-1.57019
-1.56745
-1.56466
-1.56189
-1.55917
-1.55665
-1.55444
-1.55293
-1.55188
-1.55154
-1.55202
-1.55436
-1.55799
-1.56377
-1.57174
-1.58181
-1.59493
-1.60999
-1.6278
-1.64768
-1.66917
-1.6924
-1.71602
-1.7404
-1.76449
-1.78818
-1.81106
-1.83273
-1.85318
-1.872
-1.88937
-1.90501
-1.91909
-1.93153
-1.94278
-1.95201
-1.59046
-1.58866
-1.58655
-1.5844
-1.58214
-1.57985
-1.57752
-1.5752
-1.57294
-1.57085
-1.56903
-1.56779
-1.56697
-1.56671
-1.56716
-1.56914
-1.57225
-1.57717
-1.58398
-1.59264
-1.60398
-1.61713
-1.63282
-1.65054
-1.66992
-1.69111
-1.71292
-1.73568
-1.75844
-1.78104
-1.80308
-1.82414
-1.84419
-1.86278
-1.88005
-1.89569
-1.90986
-1.92245
-1.93388
-1.94332
-1.60008
-1.59858
-1.59682
-1.59502
-1.59313
-1.59122
-1.58929
-1.58737
-1.58551
-1.5838
-1.58232
-1.58134
-1.58073
-1.58059
-1.58105
-1.58279
-1.58551
-1.58977
-1.59567
-1.60317
-1.61304
-1.62457
-1.63842
-1.65421
-1.67164
-1.69091
-1.71096
-1.73211
-1.75348
-1.77492
-1.79603
-1.81638
-1.8359
-1.85416
-1.87122
-1.88679
-1.90097
-1.91363
-1.92518
-1.93478
-1.60901
-1.60777
-1.6063
-1.60481
-1.60325
-1.60168
-1.60008
-1.59851
-1.597
-1.59562
-1.59445
-1.5937
-1.5933
-1.59328
-1.59378
-1.59536
-1.5978
-1.60155
-1.60671
-1.61329
-1.62193
-1.63209
-1.64434
-1.65842
-1.67411
-1.69158
-1.70997
-1.72954
-1.74952
-1.76975
-1.78985
-1.80941
-1.82832
-1.84614
-1.86291
-1.87832
-1.89242
-1.90509
-1.91669
-1.9264
-1.6173
-1.61629
-1.61508
-1.61386
-1.61258
-1.61129
-1.61
-1.60873
-1.60752
-1.60643
-1.60553
-1.60499
-1.60478
-1.60488
-1.60544
-1.60691
-1.60915
-1.6125
-1.61708
-1.62291
-1.63052
-1.63953
-1.65042
-1.663
-1.67711
-1.69295
-1.70977
-1.72782
-1.74642
-1.76543
-1.78449
-1.80318
-1.82141
-1.83871
-1.85511
-1.87027
-1.88424
-1.89685
-1.90844
-1.9182
-1.62501
-1.62421
-1.62322
-1.62223
-1.62119
-1.62016
-1.61912
-1.61811
-1.61717
-1.61633
-1.61567
-1.61532
-1.61527
-1.61549
-1.61611
-1.61752
-1.61961
-1.62265
-1.62676
-1.63197
-1.63875
-1.64678
-1.65649
-1.66776
-1.68047
-1.69483
-1.7102
-1.72682
-1.74409
-1.76188
-1.77987
-1.79766
-1.81514
-1.83187
-1.84782
-1.86266
-1.87642
-1.88891
-1.90044
-1.9102
-1.63219
-1.63156
-1.63077
-1.62998
-1.62915
-1.62834
-1.62752
-1.62674
-1.62602
-1.6254
-1.62495
-1.62477
-1.62486
-1.62519
-1.62588
-1.62725
-1.62922
-1.63202
-1.63576
-1.64046
-1.64653
-1.65374
-1.66244
-1.67258
-1.68406
-1.69708
-1.71112
-1.72639
-1.74238
-1.75899
-1.77591
-1.79278
-1.80948
-1.82557
-1.84102
-1.85548
-1.86897
-1.88128
-1.89268
-1.9024
-1.63888
-1.6384
-1.63778
-1.63716
-1.63651
-1.63589
-1.63527
-1.63468
-1.63416
-1.63373
-1.63346
-1.63342
-1.63364
-1.63407
-1.63483
-1.63617
-1.63805
-1.64066
-1.64409
-1.64838
-1.65386
-1.66037
-1.66821
-1.67735
-1.68774
-1.69957
-1.7124
-1.72642
-1.74122
-1.75668
-1.77255
-1.78849
-1.80437
-1.81979
-1.83468
-1.84873
-1.86188
-1.87396
-1.88519
-1.89481
-1.64512
-1.64477
-1.64429
-1.64382
-1.64334
-1.64287
-1.64242
-1.642
-1.64165
-1.64138
-1.64126
-1.64136
-1.64169
-1.6422
-1.64302
-1.64434
-1.64616
-1.64861
-1.65178
-1.65572
-1.66071
-1.66662
-1.67373
-1.68201
-1.69145
-1.7022
-1.71393
-1.72681
-1.74048
-1.75485
-1.7697
-1.78471
-1.79977
-1.81449
-1.8288
-1.84237
-1.85515
-1.86695
-1.87796
-1.88745
-1.65094
-1.6507
-1.65035
-1.65001
-1.64966
-1.64933
-1.64902
-1.64875
-1.64854
-1.64841
-1.64843
-1.64863
-1.64906
-1.64965
-1.65052
-1.65183
-1.65359
-1.65591
-1.65887
-1.66252
-1.66709
-1.67249
-1.67896
-1.6865
-1.69509
-1.7049
-1.71563
-1.72746
-1.74009
-1.75343
-1.7673
-1.7814
-1.79564
-1.80964
-1.82334
-1.8364
-1.84878
-1.86025
-1.871
-1.8803
-1.65638
-1.65624
-1.656
-1.65576
-1.65553
-1.65531
-1.65513
-1.65498
-1.65489
-1.65488
-1.65501
-1.65531
-1.65582
-1.65648
-1.65739
-1.65869
-1.66041
-1.66262
-1.6654
-1.66879
-1.673
-1.67797
-1.68389
-1.69078
-1.69862
-1.70759
-1.71743
-1.72831
-1.73996
-1.75234
-1.76527
-1.7785
-1.79192
-1.80521
-1.81827
-1.83081
-1.84273
-1.85385
-1.8643
-1.87339
-1.66147
-1.6614
-1.66125
-1.66111
-1.66097
-1.66086
-1.66077
-1.66073
-1.66075
-1.66084
-1.66107
-1.66145
-1.66202
-1.66274
-1.66368
-1.66498
-1.66666
-1.66877
-1.67139
-1.67457
-1.67848
-1.68307
-1.68851
-1.69482
-1.70201
-1.71023
-1.71927
-1.72928
-1.74004
-1.75151
-1.76355
-1.77594
-1.78857
-1.80114
-1.81357
-1.82556
-1.83702
-1.84775
-1.85786
-1.8667
-1.66622
-1.66622
-1.66615
-1.66609
-1.66603
-1.66601
-1.66601
-1.66605
-1.66616
-1.66634
-1.66664
-1.66709
-1.66771
-1.66848
-1.66945
-1.67075
-1.67238
-1.67441
-1.6769
-1.67989
-1.68353
-1.68778
-1.6928
-1.69862
-1.70523
-1.71278
-1.7211
-1.73032
-1.74026
-1.7509
-1.76211
-1.77368
-1.78555
-1.79742
-1.80921
-1.82063
-1.83161
-1.84193
-1.85168
-1.86024
-1.67068
-1.67073
-1.67072
-1.67073
-1.67074
-1.67078
-1.67086
-1.67097
-1.67115
-1.67141
-1.67177
-1.67228
-1.67295
-1.67375
-1.67474
-1.67603
-1.67762
-1.67958
-1.68195
-1.68477
-1.68818
-1.69214
-1.69679
-1.70216
-1.70826
-1.71521
-1.72288
-1.73139
-1.74058
-1.75045
-1.76087
-1.77169
-1.78281
-1.79399
-1.80515
-1.81602
-1.82649
-1.83638
-1.84576
-1.85402
-1.67484
-1.67494
-1.67499
-1.67505
-1.67512
-1.67522
-1.67535
-1.67553
-1.67577
-1.67609
-1.67651
-1.67706
-1.67776
-1.67859
-1.6796
-1.68088
-1.68243
-1.68432
-1.68658
-1.68925
-1.69245
-1.69615
-1.70048
-1.70545
-1.7111
-1.71752
-1.7246
-1.73246
-1.74097
-1.75011
-1.75981
-1.7699
-1.78032
-1.79084
-1.80138
-1.81168
-1.82165
-1.8311
-1.84008
-1.84802
-1.67875
-1.67888
-1.67897
-1.67908
-1.67919
-1.67934
-1.67953
-1.67976
-1.68005
-1.68041
-1.68087
-1.68146
-1.68219
-1.68304
-1.68406
-1.68532
-1.68684
-1.68866
-1.69083
-1.69336
-1.69637
-1.69984
-1.70388
-1.7085
-1.71374
-1.71968
-1.72623
-1.7335
-1.74138
-1.74987
-1.75889
-1.7683
-1.77805
-1.78793
-1.79786
-1.8076
-1.81707
-1.82608
-1.83465
-1.84224
-1.68241
-1.68257
-1.6827
-1.68284
-1.68299
-1.68318
-1.68341
-1.68368
-1.68401
-1.68441
-1.68491
-1.68553
-1.68627
-1.68713
-1.68815
-1.6894
-1.69088
-1.69264
-1.69471
-1.69713
-1.69997
-1.70323
-1.70701
-1.71132
-1.71618
-1.72169
-1.72777
-1.7345
-1.74181
-1.74969
-1.75807
-1.76685
-1.77596
-1.78523
-1.79457
-1.80377
-1.81274
-1.82129
-1.82945
-1.83669
-1.68584
-1.68603
-1.68618
-1.68635
-1.68654
-1.68676
-1.68702
-1.68732
-1.68768
-1.68812
-1.68864
-1.68927
-1.69003
-1.6909
-1.69192
-1.69315
-1.69459
-1.69629
-1.69828
-1.70058
-1.70327
-1.70634
-1.70988
-1.7139
-1.71844
-1.72355
-1.7292
-1.73545
-1.74223
-1.74955
-1.75735
-1.76553
-1.77404
-1.78271
-1.79149
-1.80015
-1.80863
-1.81673
-1.82447
-1.83136
-1.68906
-1.68926
-1.68944
-1.68963
-1.68984
-1.69009
-1.69037
-1.6907
-1.69109
-1.69155
-1.69209
-1.69274
-1.6935
-1.69437
-1.69538
-1.69659
-1.698
-1.69964
-1.70155
-1.70374
-1.70629
-1.70918
-1.71251
-1.71628
-1.72051
-1.72527
-1.73052
-1.73633
-1.74263
-1.74943
-1.75668
-1.7643
-1.77225
-1.78037
-1.78859
-1.79675
-1.80474
-1.81239
-1.81972
-1.82624
-1.69208
-1.6923
-1.69249
-1.6927
-1.69293
-1.6932
-1.6935
-1.69385
-1.69425
-1.69473
-1.69528
-1.69594
-1.6967
-1.69757
-1.69857
-1.69976
-1.70112
-1.70271
-1.70454
-1.70663
-1.70905
-1.71179
-1.71491
-1.71845
-1.7224
-1.72685
-1.73173
-1.73713
-1.74299
-1.74932
-1.75607
-1.76317
-1.77058
-1.77817
-1.78587
-1.79353
-1.80104
-1.80826
-1.81517
-1.82133
-1.69491
-1.69514
-1.69535
-1.69557
-1.69582
-1.69609
-1.69641
-1.69678
-1.6972
-1.69768
-1.69824
-1.69891
-1.69966
-1.70053
-1.70151
-1.70267
-1.704
-1.70553
-1.70728
-1.70928
-1.71158
-1.71417
-1.71711
-1.72043
-1.72413
-1.72828
-1.73284
-1.73787
-1.74332
-1.7492
-1.75548
-1.7621
-1.76901
-1.7761
-1.78331
-1.79048
-1.79754
-1.80433
-1.81083
-1.81663
-1.69757
-1.69781
-1.69802
-1.69826
-1.69851
-1.6988
-1.69913
-1.6995
-1.69993
-1.70042
-1.70099
-1.70165
-1.7024
-1.70325
-1.70422
-1.70536
-1.70664
-1.70812
-1.7098
-1.71171
-1.71389
-1.71634
-1.71912
-1.72224
-1.72571
-1.72959
-1.73384
-1.73853
-1.7436
-1.74908
-1.75493
-1.76109
-1.76753
-1.77414
-1.78088
-1.78759
-1.79421
-1.80058
-1.80669
-1.81213
-1.70007
-1.70031
-1.70053
-1.70077
-1.70103
-1.70133
-1.70167
-1.70205
-1.70248
-1.70297
-1.70354
-1.7042
-1.70494
-1.70578
-1.70673
-1.70783
-1.70907
-1.7105
-1.71211
-1.71393
-1.71601
-1.71833
-1.72095
-1.72388
-1.72714
-1.73077
-1.73474
-1.73911
-1.74384
-1.74894
-1.75439
-1.76012
-1.76612
-1.77229
-1.77858
-1.78486
-1.79105
-1.79702
-1.80273
-1.80783
-1.70242
-1.70265
-1.70288
-1.70312
-1.70339
-1.70369
-1.70403
-1.70442
-1.70485
-1.70535
-1.70591
-1.70656
-1.70729
-1.70811
-1.70904
-1.71011
-1.71131
-1.71268
-1.71423
-1.71597
-1.71794
-1.72014
-1.72262
-1.72538
-1.72843
-1.73183
-1.73555
-1.73963
-1.74404
-1.74879
-1.75386
-1.7592
-1.76479
-1.77054
-1.7764
-1.78226
-1.78804
-1.79362
-1.79896
-1.80372
-1.70462
-1.70485
-1.70508
-1.70533
-1.7056
-1.7059
-1.70624
-1.70663
-1.70706
-1.70755
-1.70811
-1.70875
-1.70946
-1.71027
-1.71117
-1.71221
-1.71337
-1.71469
-1.71617
-1.71783
-1.71971
-1.72179
-1.72413
-1.72673
-1.7296
-1.73279
-1.73627
-1.74007
-1.74419
-1.74861
-1.75333
-1.75831
-1.76351
-1.76886
-1.77433
-1.77979
-1.78518
-1.79039
-1.79537
-1.79979
-1.70668
-1.70692
-1.70715
-1.70739
-1.70767
-1.70797
-1.70831
-1.70869
-1.70912
-1.70961
-1.71016
-1.71079
-1.71148
-1.71227
-1.71315
-1.71415
-1.71527
-1.71654
-1.71796
-1.71954
-1.72132
-1.7233
-1.72551
-1.72796
-1.73066
-1.73365
-1.7369
-1.74046
-1.74429
-1.74842
-1.75281
-1.75744
-1.76229
-1.76727
-1.77235
-1.77744
-1.78246
-1.78731
-1.79194
-1.79605
-1.70862
-1.70885
-1.70908
-1.70933
-1.7096
-1.7099
-1.71024
-1.71062
-1.71104
-1.71152
-1.71206
-1.71268
-1.71336
-1.71412
-1.71497
-1.71594
-1.71702
-1.71823
-1.71959
-1.7211
-1.7228
-1.72467
-1.72676
-1.72907
-1.7316
-1.73441
-1.73745
-1.74078
-1.74436
-1.7482
-1.7523
-1.7566
-1.76111
-1.76574
-1.77047
-1.7752
-1.77987
-1.78438
-1.78868
-1.79248
-1.71044
-1.71067
-1.7109
-1.71114
-1.71141
-1.71171
-1.71204
-1.71242
-1.71284
-1.71331
-1.71383
-1.71443
-1.71509
-1.71584
-1.71666
-1.7176
-1.71863
-1.7198
-1.72109
-1.72253
-1.72414
-1.72592
-1.72789
-1.73007
-1.73245
-1.73508
-1.73793
-1.74104
-1.74438
-1.74797
-1.75178
-1.75579
-1.75998
-1.76428
-1.76868
-1.77307
-1.77741
-1.78159
-1.78557
-1.78908
-1.71214
-1.71237
-1.71259
-1.71283
-1.7131
-1.7134
-1.71373
-1.7141
-1.71451
-1.71497
-1.71548
-1.71606
-1.71671
-1.71742
-1.71822
-1.71912
-1.72012
-1.72123
-1.72247
-1.72384
-1.72537
-1.72705
-1.72891
-1.73097
-1.73321
-1.73568
-1.73835
-1.74125
-1.74437
-1.74771
-1.75126
-1.75499
-1.75888
-1.76289
-1.76697
-1.77105
-1.77507
-1.77894
-1.78262
-1.78586
-1.71374
-1.71396
-1.71418
-1.71442
-1.71468
-1.71498
-1.7153
-1.71566
-1.71606
-1.71651
-1.71701
-1.71758
-1.7182
-1.7189
-1.71966
-1.72053
-1.72149
-1.72255
-1.72373
-1.72504
-1.72649
-1.72808
-1.72984
-1.73177
-1.73388
-1.7362
-1.7387
-1.74142
-1.74433
-1.74744
-1.75074
-1.75421
-1.75783
-1.76155
-1.76533
-1.76911
-1.77284
-1.77642
-1.77982
-1.78279
-1.71523
-1.71545
-1.71567
-1.7159
-1.71616
-1.71645
-1.71677
-1.71712
-1.71751
-1.71795
-1.71844
-1.71899
-1.71959
-1.72026
-1.721
-1.72183
-1.72275
-1.72376
-1.72489
-1.72613
-1.72751
-1.72901
-1.73068
-1.7325
-1.73448
-1.73665
-1.739
-1.74153
-1.74425
-1.74715
-1.75023
-1.75345
-1.75681
-1.76026
-1.76377
-1.76727
-1.77072
-1.77402
-1.77715
-1.77988
-1.71663
-1.71684
-1.71706
-1.71729
-1.71754
-1.71783
-1.71814
-1.71848
-1.71886
-1.71929
-1.71976
-1.72029
-1.72087
-1.72152
-1.72223
-1.72303
-1.7239
-1.72488
-1.72595
-1.72713
-1.72843
-1.72986
-1.73143
-1.73314
-1.73501
-1.73705
-1.73924
-1.74161
-1.74415
-1.74685
-1.74971
-1.75271
-1.75583
-1.75903
-1.76228
-1.76552
-1.7687
-1.77175
-1.77462
-1.77712
-1.71794
-1.71815
-1.71836
-1.71859
-1.71884
-1.71911
-1.71941
-1.71975
-1.72012
-1.72054
-1.72099
-1.72151
-1.72207
-1.72269
-1.72337
-1.72414
-1.72497
-1.7259
-1.72692
-1.72804
-1.72928
-1.73062
-1.7321
-1.73372
-1.73547
-1.73738
-1.73944
-1.74165
-1.74402
-1.74654
-1.7492
-1.75198
-1.75488
-1.75784
-1.76085
-1.76385
-1.76678
-1.76959
-1.77223
-1.7745
-1.71916
-1.71936
-1.71957
-1.71979
-1.72004
-1.72031
-1.7206
-1.72093
-1.72129
-1.72169
-1.72213
-1.72263
-1.72317
-1.72376
-1.72442
-1.72515
-1.72595
-1.72683
-1.72781
-1.72887
-1.73004
-1.73131
-1.73271
-1.73423
-1.73588
-1.73767
-1.73959
-1.74166
-1.74387
-1.74622
-1.74869
-1.75128
-1.75396
-1.75671
-1.75949
-1.76225
-1.76496
-1.76754
-1.76996
-1.77203
-1.72031
-1.7205
-1.7207
-1.72092
-1.72116
-1.72142
-1.72171
-1.72203
-1.72238
-1.72277
-1.72319
-1.72367
-1.72419
-1.72476
-1.72539
-1.72609
-1.72685
-1.72769
-1.72861
-1.72962
-1.73073
-1.73193
-1.73325
-1.73468
-1.73623
-1.73791
-1.73971
-1.74164
-1.7437
-1.74589
-1.74819
-1.75059
-1.75308
-1.75562
-1.75819
-1.76074
-1.76323
-1.7656
-1.76781
-1.76969
-1.72137
-1.72156
-1.72176
-1.72197
-1.72221
-1.72246
-1.72274
-1.72305
-1.72339
-1.72376
-1.72418
-1.72463
-1.72513
-1.72568
-1.72628
-1.72695
-1.72768
-1.72848
-1.72935
-1.73031
-1.73136
-1.73249
-1.73373
-1.73508
-1.73653
-1.73811
-1.73979
-1.7416
-1.74352
-1.74555
-1.74769
-1.74992
-1.75222
-1.75457
-1.75695
-1.7593
-1.76159
-1.76376
-1.76578
-1.76748
-1.72237
-1.72255
-1.72275
-1.72295
-1.72318
-1.72343
-1.7237
-1.724
-1.72433
-1.72469
-1.72508
-1.72552
-1.726
-1.72653
-1.7271
-1.72774
-1.72843
-1.72919
-1.73002
-1.73093
-1.73192
-1.73299
-1.73416
-1.73543
-1.73679
-1.73827
-1.73984
-1.74153
-1.74332
-1.74521
-1.7472
-1.74927
-1.7514
-1.75357
-1.75576
-1.75793
-1.76003
-1.76202
-1.76386
-1.7654
-1.7233
-1.72348
-1.72367
-1.72387
-1.72409
-1.72433
-1.72459
-1.72488
-1.7252
-1.72554
-1.72593
-1.72635
-1.72681
-1.72731
-1.72786
-1.72847
-1.72913
-1.72985
-1.73064
-1.73149
-1.73243
-1.73344
-1.73454
-1.73573
-1.73701
-1.73839
-1.73987
-1.74144
-1.74311
-1.74487
-1.74672
-1.74863
-1.75061
-1.75261
-1.75463
-1.75663
-1.75856
-1.76037
-1.76205
-1.76343
-1.72416
-1.72434
-1.72452
-1.72472
-1.72493
-1.72516
-1.72542
-1.7257
-1.726
-1.72634
-1.7267
-1.72711
-1.72755
-1.72803
-1.72855
-1.72913
-1.72976
-1.73045
-1.73119
-1.732
-1.73289
-1.73384
-1.73488
-1.736
-1.7372
-1.73849
-1.73987
-1.74134
-1.74289
-1.74453
-1.74624
-1.74802
-1.74984
-1.7517
-1.75356
-1.75539
-1.75716
-1.75882
-1.76034
-1.76158
-1.72497
-1.72514
-1.72532
-1.72551
-1.72571
-1.72594
-1.72619
-1.72645
-1.72675
-1.72707
-1.72742
-1.72781
-1.72823
-1.72869
-1.72919
-1.72974
-1.73034
-1.73099
-1.7317
-1.73246
-1.7333
-1.7342
-1.73517
-1.73622
-1.73735
-1.73856
-1.73985
-1.74122
-1.74267
-1.74419
-1.74578
-1.74742
-1.74911
-1.75082
-1.75253
-1.75422
-1.75584
-1.75735
-1.75872
-1.75984
-1.72572
-1.72588
-1.72606
-1.72624
-1.72644
-1.72666
-1.7269
-1.72716
-1.72744
-1.72775
-1.72809
-1.72846
-1.72886
-1.7293
-1.72978
-1.7303
-1.73087
-1.73148
-1.73215
-1.73288
-1.73367
-1.73451
-1.73543
-1.73642
-1.73747
-1.73861
-1.73981
-1.74109
-1.74243
-1.74385
-1.74532
-1.74685
-1.74841
-1.74998
-1.75156
-1.7531
-1.75458
-1.75596
-1.75721
-1.7582
-1.72642
-1.72658
-1.72674
-1.72692
-1.72712
-1.72733
-1.72756
-1.72781
-1.72808
-1.72838
-1.7287
-1.72906
-1.72944
-1.72986
-1.73031
-1.73081
-1.73135
-1.73193
-1.73257
-1.73325
-1.734
-1.73479
-1.73566
-1.73658
-1.73757
-1.73863
-1.73975
-1.74094
-1.7422
-1.74351
-1.74488
-1.74629
-1.74773
-1.74919
-1.75063
-1.75205
-1.7534
-1.75466
-1.75578
-1.75667
-1.72707
-1.72722
-1.72738
-1.72756
-1.72774
-1.72795
-1.72817
-1.72841
-1.72867
-1.72896
-1.72927
-1.7296
-1.72997
-1.73037
-1.7308
-1.73128
-1.73179
-1.73234
-1.73294
-1.73359
-1.73429
-1.73504
-1.73585
-1.73672
-1.73764
-1.73864
-1.73968
-1.74079
-1.74196
-1.74318
-1.74445
-1.74575
-1.74709
-1.74842
-1.74976
-1.75105
-1.75229
-1.75342
-1.75444
-1.75523
-1.72767
-1.72782
-1.72798
-1.72814
-1.72832
-1.72852
-1.72873
-1.72896
-1.72922
-1.72949
-1.72979
-1.73011
-1.73046
-1.73084
-1.73125
-1.7317
-1.73218
-1.73271
-1.73328
-1.73389
-1.73455
-1.73525
-1.73602
-1.73683
-1.7377
-1.73862
-1.7396
-1.74064
-1.74172
-1.74286
-1.74403
-1.74524
-1.74647
-1.7477
-1.74892
-1.75011
-1.75123
-1.75226
-1.75318
-1.75388
-1.72823
-1.72838
-1.72853
-1.72869
-1.72886
-1.72905
-1.72926
-1.72948
-1.72972
-1.72998
-1.73026
-1.73057
-1.73091
-1.73127
-1.73166
-1.73209
-1.73255
-1.73304
-1.73358
-1.73415
-1.73478
-1.73544
-1.73616
-1.73692
-1.73773
-1.7386
-1.73951
-1.74048
-1.74149
-1.74254
-1.74363
-1.74474
-1.74587
-1.74701
-1.74813
-1.74922
-1.75024
-1.75118
-1.752
-1.75261
-1.72875
-1.72889
-1.72904
-1.72919
-1.72936
-1.72954
-1.72974
-1.72995
-1.73018
-1.73043
-1.73071
-1.731
-1.73132
-1.73166
-1.73204
-1.73244
-1.73287
-1.73334
-1.73385
-1.73439
-1.73498
-1.73561
-1.73628
-1.73699
-1.73775
-1.73856
-1.73941
-1.74031
-1.74125
-1.74223
-1.74323
-1.74427
-1.74531
-1.74635
-1.74738
-1.74837
-1.74931
-1.75015
-1.75089
-1.75143
-1.72924
-1.72937
-1.72951
-1.72966
-1.72982
-1.73
-1.73019
-1.73039
-1.73061
-1.73085
-1.73111
-1.73139
-1.73169
-1.73202
-1.73238
-1.73276
-1.73317
-1.73362
-1.73409
-1.73461
-1.73516
-1.73575
-1.73638
-1.73705
-1.73776
-1.73852
-1.73931
-1.74015
-1.74102
-1.74192
-1.74286
-1.74381
-1.74477
-1.74573
-1.74667
-1.74758
-1.74843
-1.74919
-1.74985
-1.75032
-1.72969
-1.72981
-1.72995
-1.73009
-1.73025
-1.73042
-1.7306
-1.73079
-1.73101
-1.73124
-1.73148
-1.73175
-1.73204
-1.73235
-1.73269
-1.73305
-1.73344
-1.73386
-1.73431
-1.7348
-1.73531
-1.73587
-1.73646
-1.73709
-1.73775
-1.73846
-1.7392
-1.73998
-1.74079
-1.74163
-1.74249
-1.74337
-1.74426
-1.74514
-1.746
-1.74683
-1.7476
-1.74829
-1.74888
-1.74929
-1.7301
-1.73022
-1.73035
-1.73049
-1.73064
-1.7308
-1.73098
-1.73117
-1.73137
-1.73159
-1.73182
-1.73208
-1.73235
-1.73265
-1.73297
-1.73331
-1.73368
-1.73408
-1.73451
-1.73496
-1.73545
-1.73597
-1.73653
-1.73711
-1.73774
-1.7384
-1.73909
-1.73981
-1.74057
-1.74134
-1.74214
-1.74295
-1.74377
-1.74458
-1.74537
-1.74613
-1.74683
-1.74745
-1.74797
-1.74833
-1.73048
-1.7306
-1.73073
-1.73086
-1.73101
-1.73116
-1.73133
-1.73151
-1.7317
-1.73191
-1.73214
-1.73238
-1.73264
-1.73292
-1.73323
-1.73355
-1.7339
-1.73428
-1.73468
-1.73511
-1.73557
-1.73606
-1.73658
-1.73713
-1.73771
-1.73833
-1.73897
-1.73965
-1.74035
-1.74107
-1.74181
-1.74256
-1.74331
-1.74405
-1.74478
-1.74546
-1.7461
-1.74666
-1.74712
-1.74744
-1.73084
-1.73095
-1.73108
-1.7312
-1.73134
-1.73149
-1.73165
-1.73182
-1.73201
-1.73221
-1.73242
-1.73266
-1.7329
-1.73317
-1.73346
-1.73377
-1.7341
-1.73445
-1.73483
-1.73524
-1.73567
-1.73613
-1.73662
-1.73714
-1.73768
-1.73826
-1.73886
-1.73948
-1.74013
-1.7408
-1.74149
-1.74218
-1.74287
-1.74355
-1.74422
-1.74484
-1.74542
-1.74592
-1.74634
-1.7466
-1.73117
-1.73128
-1.7314
-1.73152
-1.73165
-1.73179
-1.73195
-1.73211
-1.73229
-1.73248
-1.73269
-1.73291
-1.73314
-1.7334
-1.73367
-1.73396
-1.73428
-1.73461
-1.73497
-1.73535
-1.73576
-1.73619
-1.73665
-1.73713
-1.73764
-1.73818
-1.73874
-1.73932
-1.73993
-1.74055
-1.74118
-1.74182
-1.74246
-1.74308
-1.74369
-1.74426
-1.74478
-1.74523
-1.7456
-1.74583
-1.73147
-1.73158
-1.73169
-1.73181
-1.73194
-1.73207
-1.73222
-1.73238
-1.73255
-1.73273
-1.73293
-1.73314
-1.73336
-1.7336
-1.73386
-1.73414
-1.73443
-1.73475
-1.73509
-1.73545
-1.73583
-1.73624
-1.73667
-1.73712
-1.7376
-1.7381
-1.73862
-1.73917
-1.73973
-1.7403
-1.74089
-1.74148
-1.74206
-1.74264
-1.74319
-1.74371
-1.74419
-1.74459
-1.74492
-1.74511
-1.73175
-1.73185
-1.73196
-1.73208
-1.7322
-1.73233
-1.73247
-1.73262
-1.73278
-1.73296
-1.73314
-1.73334
-1.73356
-1.73379
-1.73403
-1.7343
-1.73458
-1.73488
-1.73519
-1.73553
-1.73589
-1.73628
-1.73668
-1.7371
-1.73755
-1.73802
-1.73851
-1.73901
-1.73953
-1.74007
-1.74061
-1.74115
-1.74169
-1.74222
-1.74273
-1.7432
-1.74363
-1.74399
-1.74428
-1.74445
-1.73201
-1.73211
-1.73221
-1.73232
-1.73244
-1.73257
-1.7327
-1.73285
-1.733
-1.73317
-1.73334
-1.73353
-1.73374
-1.73396
-1.73419
-1.73444
-1.7347
-1.73499
-1.73529
-1.73561
-1.73595
-1.73631
-1.73668
-1.73708
-1.7375
-1.73794
-1.73839
-1.73886
-1.73935
-1.73984
-1.74034
-1.74085
-1.74134
-1.74183
-1.74229
-1.74272
-1.74311
-1.74344
-1.74369
-1.74383
-1.73225
-1.73234
-1.73244
-1.73255
-1.73266
-1.73278
-1.73291
-1.73305
-1.7332
-1.73336
-1.73353
-1.73371
-1.7339
-1.73411
-1.73433
-1.73457
-1.73482
-1.73508
-1.73537
-1.73567
-1.73599
-1.73633
-1.73668
-1.73706
-1.73745
-1.73786
-1.73828
-1.73872
-1.73917
-1.73963
-1.74009
-1.74056
-1.74102
-1.74146
-1.74189
-1.74228
-1.74263
-1.74292
-1.74314
-1.74326
-1.73247
-1.73256
-1.73265
-1.73276
-1.73286
-1.73298
-1.7331
-1.73324
-1.73338
-1.73353
-1.73369
-1.73386
-1.73405
-1.73425
-1.73446
-1.73468
-1.73492
-1.73517
-1.73544
-1.73572
-1.73603
-1.73634
-1.73668
-1.73703
-1.73739
-1.73778
-1.73817
-1.73858
-1.739
-1.73943
-1.73986
-1.74028
-1.74071
-1.74112
-1.7415
-1.74186
-1.74218
-1.74244
-1.74264
-1.74274
-1.73267
-1.73276
-1.73285
-1.73295
-1.73305
-1.73316
-1.73328
-1.73341
-1.73354
-1.73369
-1.73384
-1.73401
-1.73418
-1.73437
-1.73457
-1.73478
-1.73501
-1.73525
-1.7355
-1.73577
-1.73605
-1.73635
-1.73667
-1.737
-1.73734
-1.7377
-1.73807
-1.73845
-1.73884
-1.73923
-1.73963
-1.74003
-1.74042
-1.74079
-1.74115
-1.74148
-1.74176
-1.742
-1.74217
-1.74225
-1.73285
-1.73294
-1.73303
-1.73312
-1.73322
-1.73333
-1.73344
-1.73356
-1.73369
-1.73383
-1.73398
-1.73413
-1.7343
-1.73448
-1.73467
-1.73487
-1.73509
-1.73531
-1.73555
-1.73581
-1.73608
-1.73636
-1.73665
-1.73696
-1.73728
-1.73762
-1.73796
-1.73832
-1.73868