/*--------------------------------*- C++ -*----------------------------------*\
| =========                 |                                                 |
| \\      /  F ield         | OpenFOAM: The Open Source CFD Toolbox           |
|  \\    /   O peration     | Version:  5.x                                   |
|   \\  /    A nd           | Web:      www.OpenFOAM.org                      |
|    \\/     M anipulation  |                                                 |
\*---------------------------------------------------------------------------*/
FoamFile
{
    version     2.0;
    format      ascii;
    class       surfaceScalarField;
    location    "300";
    object      phi;
}
// * * * * * * * * * * * * * * * * * * * * * * * * * * * * * * * * * * * * * //

dimensions      [0 3 -1 0 0 0 0];

internalField   nonuniform List<scalar> 
51690
(
3.22909e-06
-0.00020194
0.000198886
0.000146901
-0.000143673
0.000238706
-9.18045e-05
0.000295414
-5.67079e-05
0.000328571
-3.31566e-05
0.00034683
-1.82591e-05
0.000358473
-1.16425e-05
0.000363905
-5.43122e-06
0.000368497
-4.5914e-06
0.000371885
-3.38752e-06
0.000375763
-3.87847e-06
0.000381242
-5.47801e-06
0.00038134
-9.7642e-08
0.000387632
-6.29157e-06
0.00039467
-7.03773e-06
0.000400871
-6.20045e-06
0.000407935
-7.06394e-06
0.000415657
-7.72107e-06
0.000424228
-8.57092e-06
0.000433314
-9.08498e-06
0.000443102
-9.78806e-06
0.000453351
-1.0249e-05
0.000464048
-1.06966e-05
0.000475102
-1.10537e-05
0.000486369
-1.1267e-05
0.000497902
-1.15319e-05
0.000509425
-1.15228e-05
0.000520923
-1.14979e-05
0.000532175
-1.12519e-05
0.000543163
-1.09878e-05
0.000553634
-1.04713e-05
0.000563437
-9.8026e-06
0.000572371
-8.93369e-06
0.000580203
-7.83189e-06
0.000586799
-6.59613e-06
0.000591777
-4.97756e-06
0.00059511
-3.33283e-06
0.000595769
-6.58716e-07
0.000591559
4.21006e-06
3.55321e-06
0.000588006
-2.55029e-05
-0.000271888
9.54483e-05
5.31288e-05
-0.000222305
0.000126155
-0.000164831
0.000188003
-0.000118556
0.000235844
-8.09976e-05
0.000271885
-5.42992e-05
0.000298968
-3.87257e-05
0.000319182
-2.56449e-05
0.00033492
-2.0329e-05
0.000347801
-1.62679e-05
0.000358931
-1.50081e-05
0.000369966
-1.65135e-05
0.00037908
-9.21111e-06
0.000389256
-1.64666e-05
0.00039966
-1.74412e-05
0.000410401
-1.69418e-05
0.000421207
-1.78692e-05
0.000432689
-1.92028e-05
0.000444671
-2.05521e-05
0.000456876
-2.12902e-05
0.000469797
-2.27091e-05
0.0004829
-2.33517e-05
0.000496422
-2.42176e-05
0.000510236
-2.48677e-05
0.000524147
-2.5178e-05
0.000538344
-2.57289e-05
0.000552399
-2.55778e-05
0.000566406
-2.5505e-05
0.000580102
-2.4948e-05
0.000593422
-2.43077e-05
0.000606204
-2.32533e-05
0.000618201
-2.17996e-05
0.000629309
-2.00414e-05
0.000639191
-1.77142e-05
0.000647747
-1.51515e-05
0.000654581
-1.18122e-05
0.00065948
-8.23141e-06
0.000662538
-3.71691e-06
0.000662549
4.19863e-06
4.23e-06
0.000661872
-3.04229e-05
-0.000316512
7.50459e-05
2.21712e-05
-0.0002749
8.04846e-05
-0.000223145
0.000139844
-0.000177916
0.000193581
-0.000134734
0.000239572
-0.000100291
0.000277405
-7.65579e-05
0.000307455
-5.56944e-05
0.000331428
-4.43017e-05
0.000350653
-3.54926e-05
0.000366765
-3.11203e-05
0.000380844
-3.05924e-05
0.000393619
-2.19862e-05
0.000405507
-2.83543e-05
0.000417688
-2.96211e-05
0.000430113
-2.93667e-05
0.000442455
-3.02105e-05
0.000455089
-3.1837e-05
0.000468095
-3.35575e-05
0.000481415
-3.46104e-05
0.000495288
-3.65818e-05
0.000509415
-3.74788e-05
0.000523926
-3.87282e-05
0.000538723
-3.96643e-05
0.000553661
-4.01152e-05
0.00056883
-4.08985e-05
0.000583915
-4.06626e-05
0.000598936
-4.05255e-05
0.000613665
-3.96766e-05
0.000627996
-3.86389e-05
0.000641782
-3.70394e-05
0.000654778
-3.4795e-05
0.000666853
-3.21157e-05
0.000677689
-2.85509e-05
0.000687143
-2.46047e-05
0.000694853
-1.95225e-05
0.000700585
-1.39628e-05
0.000704002
-7.1341e-06
0.000704242
3.95918e-06
5.53745e-06
0.000702934
-2.85039e-05
-0.000349288
6.12798e-05
9.22779e-06
-0.000312632
5.34263e-05
-0.000267344
0.000102946
-0.000227436
0.000153071
-0.000184859
0.000200856
-0.000148076
0.000244152
-0.000119855
0.000281338
-9.28803e-05
0.000312773
-7.57357e-05
0.000338671
-6.13909e-05
0.000360477
-5.29257e-05
0.000379002
-4.91179e-05
0.000395965
-3.89487e-05
0.000411202
-4.35912e-05
0.000425822
-4.42409e-05
0.000440247
-4.37908e-05
0.000454505
-4.44688e-05
0.000468802
-4.61337e-05
0.000483291
-4.80462e-05
0.000497985
-4.93036e-05
0.000513101
-5.16977e-05
0.00052844
-5.2817e-05
0.000544092
-5.43804e-05
0.000559998
-5.557e-05
0.000576026
-5.61436e-05
0.000592249
-5.71211e-05
0.000608394
-5.68071e-05
0.000624449
-5.65812e-05
0.00064021
-5.54371e-05
0.000655546
-5.39751e-05
0.000670313
-5.18059e-05
0.000684259
-4.87411e-05
0.000697242
-4.50988e-05
0.000708946
-4.02557e-05
0.000719205
-3.48628e-05
0.000727665
-2.79826e-05
0.000734075
-2.03733e-05
0.00073808
-1.11388e-05
0.000738928
3.11097e-06
6.86103e-06
0.000737604
-2.48234e-05
-0.000376492
5.20266e-05
5.13112e-06
-0.000342587
3.99755e-05
-0.000302189
8.04495e-05
-0.00026791
0.000124269
-0.000228679
0.00016945
-0.000193257
0.000213817
-0.000164221
0.00025482
-0.000133884
0.000291743
-0.000112658
0.000323525
-9.31733e-05
0.000350998
-8.0398e-05
0.000374254
-7.23743e-05
0.000395618
-6.03121e-05
0.00041471
-6.26827e-05
0.00043242
-6.1951e-05
0.000449192
-6.05628e-05
0.000465584
-6.08608e-05
0.00048172
-6.22687e-05
0.000497816
-6.41427e-05
0.000513975
-6.54615e-05
0.000530376
-6.80987e-05
0.000546938
-6.93793e-05
0.000563731
-7.11733e-05
0.000580721
-7.25598e-05
0.000597805
-7.32269e-05
0.000615026
-7.4342e-05
0.000632158
-7.3939e-05
0.00064917
-7.35931e-05
0.000665874
-7.21411e-05
0.000682129
-7.02304e-05
0.000697789
-6.74657e-05
0.000712608
-6.35595e-05
0.000726423
-5.89139e-05
0.000738922
-5.27548e-05
0.000749908
-4.5849e-05
0.000759035
-3.71089e-05
0.000766029
-2.73671e-05
0.000770531
-1.56405e-05
0.000771902
1.73968e-06
8.09491e-06
0.000770668
-2.1236e-05
-0.000400589
4.53334e-05
4.42825e-06
-0.000368251
3.35212e-05
-0.000331282
6.73156e-05
-0.000301705
0.000105043
-0.000266406
0.000145865
-0.000234079
0.000188384
-0.000206741
0.000230168
-0.000175668
0.000270073
-0.000152563
0.000306158
-0.000129258
0.000338534
-0.000112774
0.000366416
-0.000100256
0.000392298
-8.6194e-05
0.000415566
-8.59504e-05
0.000436875
-8.32591e-05
0.000456436
-8.01241e-05
0.000475302
-7.97265e-05
0.00049356
-8.05261e-05
0.000511518
-8.2101e-05
0.00052936
-8.3303e-05
0.000547226
-8.59644e-05
0.000565163
-8.73166e-05
0.000583224
-8.92332e-05
0.000601403
-9.07389e-05
0.000619628
-9.14525e-05
0.000637921
-9.26349e-05
0.000656102
-9.21191e-05
0.000674119
-9.16107e-05
0.0006918
-8.98215e-05
0.000708995
-8.74259e-05
0.000725555
-8.40257e-05
0.000741241
-7.92452e-05
0.000755877
-7.35495e-05
0.000769156
-6.6034e-05
0.000780857
-5.75501e-05
0.000790632
-4.68842e-05
0.000798187
-3.49214e-05
0.000803155
-2.06089e-05
0.000804977
-8.2231e-08
9.20579e-06
0.000803866
-1.79106e-05
-0.000422852
4.0173e-05
5.31136e-06
-0.000391473
3.09438e-05
-0.000356914
6.02252e-05
-0.000330986
9.30986e-05
-0.000299279
0.000129499
-0.000270479
0.000168858
-0.0002461
0.000209361
-0.000216171
0.000249989
-0.000193191
0.000288502
-0.000167771
0.000324483
-0.000148755
0.000356356
-0.000132129
0.000386491
-0.000116329
0.000413986
-0.000113445
0.000439203
-0.000108476
0.000461952
-0.000102873
0.000483671
-0.000101446
0.000504385
-0.000101239
0.000524504
-0.00010222
0.000544295
-0.000103094
0.000563847
-0.000105516
0.00058335
-0.000106819
0.000602839
-0.000108722
0.000622346
-0.000110246
0.000641835
-0.000110941
0.000661304
-0.000112105
0.000680625
-0.000111439
0.000699729
-0.000110715
0.000718457
-0.00010855
0.000736657
-0.000105626
0.00075417
-0.000101538
0.000770762
-9.58374e-05
0.000786245
-8.90324e-05
0.000800319
-8.01076e-05
0.000812743
-6.99738e-05
0.000823169
-5.73105e-05
0.000831282
-4.3034e-05
0.000836706
-2.60336e-05
0.000838933
-2.3085e-06
1.01839e-05
0.000837955
-1.48666e-05
-0.000444033
3.60484e-05
6.96058e-06
-0.0004133
3.05469e-05
-0.0003805
5.69332e-05
-0.000357372
8.63212e-05
-0.000328667
0.000119025
-0.000303183
0.00015505
-0.000282125
0.000193266
-0.000254387
0.000233041
-0.000232965
0.000272302
-0.000207032
0.000310408
-0.000186861
0.000345275
-0.000166997
0.00037901
-0.000150064
0.00041044
-0.000144875
0.000439592
-0.000137628
0.000465759
-0.00012904
0.000490635
-0.000126322
0.000514114
-0.000124718
0.000536692
-0.000124797
0.000558715
-0.000125117
0.000580206
-0.000127007
0.000601501
-0.000128113
0.000622615
-0.000129836
0.000643621
-0.000131252
0.000664523
-0.000131842
0.0006853
-0.000132882
0.000705873
-0.000132012
0.000726162
-0.000131004
0.000746028
-0.000128415
0.000765313
-0.000124911
0.000783852
-0.000120077
0.000801416
-0.000113401
0.0008178
-0.000105416
0.000832709
-9.50173e-05
0.000845886
-8.31506e-05
0.000856984
-6.84076e-05
0.000865667
-5.17174e-05
0.000871552
-3.19185e-05
0.000874159
-4.91583e-06
1.10239e-05
0.000873319
-1.20686e-05
-0.000464616
3.26517e-05
9.00013e-06
-0.000434369
3.14221e-05
-0.000402922
5.60344e-05
-0.000381985
8.3093e-05
-0.000355726
0.000113035
-0.000333125
0.000146172
-0.000315261
0.000181901
-0.000290117
0.000220002
-0.000271066
0.00025881
-0.00024584
0.000297721
-0.000225772
0.000334477
-0.000203753
0.000370906
-0.000186492
0.000405668
-0.000179636
0.000438471
-0.00017043
0.000468065
-0.000158634
0.000496254
-0.000154511
0.000522735
-0.000151199
0.000548036
-0.000150098
0.000572561
-0.000149642
0.000596244
-0.00015069
0.000619565
-0.000151435
0.000642517
-0.000152788
0.000665213
-0.000153949
0.000687701
-0.00015433
0.000709937
-0.000155117
0.000731899
-0.000153975
0.000753493
-0.000152597
0.000774599
-0.000149521
0.000795062
-0.000145375
0.000814712
-0.000139727
0.000833324
-0.000132013
0.000850678
-0.00012277
0.000866482
-0.000110821
0.000880459
-9.71276e-05
0.000892263
-8.02109e-05
0.000901542
-6.09963e-05
0.000907901
-3.82781e-05
0.000910883
-7.89714e-06
1.17199e-05
0.000910187
-9.46829e-06
-0.000484929
2.97814e-05
1.12545e-05
-0.000455092
3.3079e-05
-0.000424747
5.66758e-05
-0.000405581
8.22805e-05
-0.00038133
0.000110328
-0.000361173
0.000141243
-0.000346176
0.000174764
-0.000323638
0.000210978
-0.00030728
0.000248677
-0.000283539
0.000287436
-0.000264531
0.000325099
-0.000241416
0.000363264
-0.000224657
0.000400573
-0.000216945
0.000436494
-0.000206351
0.000469295
-0.000191436
0.000500766
-0.000185981
0.000530357
-0.00018079
0.000558564
-0.000178305
0.000585812
-0.00017689
0.000611921
-0.000176799
0.000637502
-0.000177016
0.00066251
-0.000177796
0.000687097
-0.000178535
0.000711353
-0.000178586
0.000735213
-0.000178977
0.000758715
-0.000177477
0.000781748
-0.00017563
0.000804215
-0.000171989
0.000825964
-0.000167124
0.00084682
-0.000160582
0.000866566
-0.00015176
0.000884966
-0.000141169
0.000901733
-0.000127588
0.000916568
-0.000111963
0.000929125
-9.27673e-05
0.000939034
-7.09058e-05
0.000945893
-4.51366e-05
0.000949254
-1.1258e-05
1.22634e-05
0.00094871
-7.01996e-06
-0.00050521
2.7301e-05
1.36424e-05
-0.000475754
3.52512e-05
-0.000446356
5.83499e-05
-0.00042868
8.31354e-05
-0.000406116
0.000109994
-0.000388032
0.000139359
-0.000375541
0.000171157
-0.000355435
0.000205657
-0.000341779
0.000242044
-0.000319927
0.000280107
-0.000302594
0.000317959
-0.000279268
0.000357026
-0.000263724
0.00039607
-0.000255988
0.000434438
-0.000244719
0.000470043
-0.000227041
0.000504574
-0.000220512
0.000537232
-0.000213448
0.00056842
-0.000209493
0.000598538
-0.000207008
0.000627262
-0.000205523
0.000655308
-0.000205061
0.000682579
-0.000205067
0.000709256
-0.000205212
0.000735471
-0.0002048
0.000761127
-0.000204633
0.000786328
-0.000202678
0.000810944
-0.000200246
0.000834905
-0.000195949
0.000858058
-0.000190278
0.000880226
-0.00018275
0.000901202
-0.000172736
0.000920733
-0.0001607
0.000938537
-0.000145392
0.000954296
-0.000127722
0.000967661
-0.000106132
0.000978245
-8.14892e-05
0.000985633
-5.25254e-05
0.000989388
-1.5013e-05
1.26429e-05
0.000989009
-4.68509e-06
-0.000525641
2.51156e-05
1.61262e-05
-0.000496565
3.77898e-05
-0.000468019
6.07536e-05
-0.000451644
8.51775e-05
-0.000430539
0.000111389
-0.000414244
0.000139786
-0.000403938
0.000170384
-0.000386034
0.000203534
-0.000374929
0.000238713
-0.000355105
0.000275891
-0.000339772
0.000313513
-0.000316891
0.000352876
-0.000303087
0.000392949
-0.000296061
0.000433076
-0.000284847
0.000470982
-0.000264947
0.000508212
-0.000257742
0.000543749
-0.000248985
0.000577866
-0.00024361
0.000610901
-0.000240043
0.000642363
-0.000236984
0.000673034
-0.000235733
0.00070275
-0.000234783
0.000731704
-0.000234166
0.00076006
-0.000233157
0.000787688
-0.000232261
0.000814753
-0.000229743
0.000841104
-0.000226597
0.000866696
-0.000221541
0.000891381
-0.000214963
0.000914976
-0.000206345
0.000937285
-0.000195044
0.000958038
-0.000181453
0.000976962
-0.000164316
0.000993717
-0.000144477
0.00100795
-0.000120365
0.00101926
-9.27962e-05
0.00102721
-6.0482e-05
0.00103139
-1.9184e-05
1.28442e-05
0.00103118
-2.43134e-06
-0.000546366
2.3156e-05
1.86908e-05
-0.000517687
4.0611e-05
-0.000489939
6.37046e-05
-0.000474737
8.81018e-05
-0.000454937
0.000114077
-0.000440219
0.000141977
-0.000431838
0.000171854
-0.00041591
0.000204075
-0.00040715
0.000238314
-0.000389344
0.000274667
-0.000376125
0.000311901
-0.000354126
0.000351206
-0.000342391
0.00039179
-0.000336646
0.00043308
-0.000326136
0.000472775
-0.000304643
0.000512266
-0.000297233
0.000550387
-0.000287105
0.00058727
-0.000280493
0.000623166
-0.000275938
0.000657407
-0.000271225
0.000690803
-0.000269129
0.000723103
-0.000267082
0.000754494
-0.000265557
0.00078516
-0.000263823
0.000814927
-0.000262028
0.000844018
-0.000258834
0.000872258
-0.000254837
0.000899625
-0.000248908
0.000925974
-0.000241312
0.000951117
-0.000231489
0.000974869
-0.000218796
0.000996944
-0.000203527
0.00101707
-0.000184447
0.0010349
-0.000162305
0.00105007
-0.000135535
0.00106216
-0.000104881
0.00107072
-6.90489e-05
0.00107534
-2.37983e-05
1.28499e-05
0.00107533
-2.31613e-07
-0.000567505
2.13707e-05
2.13326e-05
-0.000539252
4.36675e-05
-0.000512274
6.70927e-05
-0.000498163
9.17156e-05
-0.000479559
0.000117766
-0.000466269
0.000145542
-0.000459614
0.000175104
-0.000445472
0.000206801
-0.000438848
0.000240431
-0.000422974
0.000276165
-0.000411859
0.000313046
-0.000391006
0.000352157
-0.000381502
0.000392941
-0.00037743
0.000434948
-0.000368143
0.000475985
-0.00034568
0.0005173
-0.000338548
0.000557656
-0.000327461
0.00059706
-0.000319897
0.00063567
-0.000314548
0.000672652
-0.000308207
0.000708803
-0.00030528
0.000743774
-0.000302053
0.000777725
-0.000299508
0.000810844
-0.000296943
0.000842904
-0.000294087
0.000874175
-0.000290104
0.000904454
-0.000285116
0.00093374
-0.000278194
0.000961888
-0.000269459
0.000988705
-0.000258306
0.00101402
-0.000244107
0.00103752
-0.000227027
0.00105895
-0.000205878
0.00107793
-0.000181286
0.0010941
-0.00015171
0.00110702
-0.000117803
0.00111625
-7.82719e-05
0.00112134
-2.88876e-05
1.26404e-05
0.00112155
1.93693e-06
-0.000589162
1.97201e-05
2.4054e-05
-0.000561369
4.69332e-05
-0.000535153
7.08505e-05
-0.00052208
9.5896e-05
-0.000504605
0.000122264
-0.000492637
0.000150209
-0.000487559
0.000179789
-0.000475052
0.000211322
-0.00047038
0.00024468
-0.000456332
0.000280066
-0.000447245
0.000316742
-0.000427682
0.000355691
-0.000420451
0.000396548
-0.000418287
0.000438997
-0.000410592
0.000481038
-0.00038772
0.000523796
-0.000381306
0.00056604
-0.000369705
0.000607682
-0.000361539
0.000648798
-0.000355664
0.000688415
-0.000347824
0.000727283
-0.000344148
0.000764955
-0.000339725
0.000801545
-0.000336098
0.000837228
-0.000332625
0.000871711
-0.00032857
0.000905301
-0.000323695
0.000937762
-0.000317577
0.000969107
-0.000309539
0.000999188
-0.00029954
0.00102781
-0.000286923
0.00105479
-0.000271092
0.00107982
-0.00025206
0.00110265
-0.000228706
0.00112287
-0.000201506
0.00114013
-0.000168965
0.00115395
-0.000131623
0.00116388
-8.82002e-05
0.00116948
-3.44869e-05
1.21938e-05
0.00116992
4.0938e-06
-0.000611428
1.81728e-05
2.68605e-05
-0.000584135
5.03944e-05
-0.000558687
7.49366e-05
-0.000546622
0.000100565
-0.000530233
0.000127444
-0.000519517
0.000155793
-0.000515908
0.000185664
-0.000504923
0.000217338
-0.000502054
0.000250732
-0.000489726
0.000286056
-0.000482569
0.00032274
-0.000464366
0.000361662
-0.000459372
0.000402606
-0.000459232
0.000445378
-0.000453364
0.000488209
-0.000430552
0.000532123
-0.000425219
0.000575954
-0.000413536
0.000619555
-0.00040514
0.00066294
-0.000399049
0.000705038
-0.000389922
0.000746534
-0.000385644
0.000786886
-0.000380076
0.000826147
-0.000375359
0.000864464
-0.000370942
0.000901474
-0.00036558
0.000937504
-0.000359725
0.000972276
-0.000352348
0.00100581
-0.000343074
0.00103795
-0.000331683
0.0010685
-0.000317465
0.00109728
-0.000299872
0.00112395
-0.000278735
0.00114828
-0.00025303
0.00116982
-0.000223053
0.00118824
-0.000187376
0.00120302
-0.000146406
0.0012137
-9.88854e-05
0.00121985
-4.06333e-05
1.14869e-05
0.00122056
6.25603e-06
-0.000634388
1.67039e-05
2.97597e-05
-0.000607639
5.40458e-05
-0.000582973
7.93273e-05
-0.000571904
0.000105672
-0.000556578
0.000133223
-0.000547068
0.000162169
-0.000544854
0.000192555
-0.000535309
0.000224628
-0.000534126
0.000258331
-0.000523429
0.000293867
-0.000518105
0.00033079
-0.000501289
0.000369876
-0.000498459
0.000411019
-0.000500375
0.000454117
-0.000496461
0.000497643
-0.000474078
0.000542531
-0.000470107
0.00058772
-0.000458725
0.000633039
-0.000450459
0.000678462
-0.000444473
0.000722868
-0.000434328
0.000766865
-0.000429641
0.000809832
-0.000423043
0.000851756
-0.000417283
0.000892741
-0.000411928
0.000932352
-0.000405191
0.000970917
-0.000398291
0.00100811
-0.000389544
0.00104396
-0.000378919
0.00107829
-0.000366012
0.00111087
-0.000350053
0.00114156
-0.00033056
0.00116999
-0.000307161
0.00119591
-0.000278951
0.00121888
-0.000246019
0.00123852
-0.000207023
0.00125434
-0.000162218
0.00126583
-0.000110381
0.00127256
-4.7366e-05
1.04953e-05
0.00127356
8.4387e-06
-0.000658119
1.52925e-05
3.27602e-05
-0.000631961
5.78874e-05
-0.000608101
8.40099e-05
-0.000598026
0.000111189
-0.000583756
0.000139548
-0.000575428
0.000169254
-0.000574559
0.000200343
-0.000566398
0.000233032
-0.000566815
0.000267282
-0.000557679
0.000303279
-0.000554102
0.00034067
-0.000538681
0.000380137
-0.000537926
0.000421644
-0.000541882
0.000465158
-0.000539975
0.00050938
-0.0005183
0.000555161
-0.000515889
0.000601564
-0.000505128
0.000648418
-0.000497312
0.000695682
-0.000491737
0.000742226
-0.000480871
0.000788583
-0.000475998
0.000834074
-0.000468534
0.000878619
-0.000461828
0.000922274
-0.000455582
0.000964528
-0.000447445
0.0010057
-0.000439461
0.00104541
-0.000429256
0.00108367
-0.000417181
0.0011203
-0.000402638
0.00115505
-0.000384801
0.00118776
-0.000363271
0.00121804
-0.000337445
0.00124566
-0.000306569
0.00127013
-0.000270493
0.0012911
-0.000227986
0.00130801
-0.000179128
0.00132037
-0.000122742
0.00132773
-5.47249e-05
9.19391e-06
0.00132903
1.06552e-05
-0.000682696
1.39215e-05
3.58713e-05
-0.000657177
6.19226e-05
-0.000634152
8.89793e-05
-0.000625083
0.000117097
-0.000611874
0.000146386
-0.000604717
0.000176991
-0.000605164
0.000208946
-0.000598353
0.000242439
-0.000600308
0.000277442
-0.000592682
0.000314123
-0.000590783
0.000352199
-0.000576757
0.000392265
-0.000577991
0.00043433
-0.000583947
0.000478405
-0.000584051
0.000523393
-0.000563288
0.000570069
-0.000562565
0.000617623
-0.000552682
0.000665899
-0.000545588
0.000714856
-0.000540695
0.000763393
-0.000529408
0.000811975
-0.00052458
0.000859889
-0.000516448
0.000906993
-0.000508932
0.000953293
-0.000501882
0.000998208
-0.00049236
0.00104203
-0.000483284
0.00108433
-0.000471556
0.0011251
-0.000457949
0.00116412
-0.000441662
0.00120114
-0.000421816
0.00123598
-0.000398109
0.00126822
-0.000369692
0.00129763
-0.00033598
0.00132371
-0.000296566
0.00134606
-0.000250344
0.00136414
-0.000197203
0.00137742
-0.000136024
0.00138545
-6.27507e-05
7.55714e-06
0.00138708
1.29177e-05
-0.00070819
1.25767e-05
3.91024e-05
-0.000683361
6.6157e-05
-0.000661206
9.42356e-05
-0.000653161
0.00012339
-0.000641028
0.000153719
-0.000635046
0.000185349
-0.000636794
0.000218312
-0.000631316
0.000252772
-0.000634768
0.000288709
-0.000628619
0.000326274
-0.000628347
0.000365235
-0.000615718
0.000406109
-0.000618865
0.000448932
-0.00062677
0.000493743
-0.000628862
0.000539616
-0.00060916
0.000587254
-0.000610204
0.000635964
-0.000601392
0.000685615
-0.000595239
0.000736176
-0.000591255
0.000786601
-0.000579832
0.000837296
-0.000575275
0.000887537
-0.000566689
0.00093713
-0.000558525
0.000986034
-0.000550785
0.00103361
-0.000539934
0.00108011
-0.000529783
0.00112505
-0.0005165
0.0011684
-0.000501296
0.00120991
-0.000483172
0.00124928
-0.000461193
0.00128635
-0.000435174
0.00132066
-0.000403999
0.00135196
-0.000367281
0.00137972
-0.000324325
0.00140355
-0.000274176
0.00142286
-0.000216513
0.00143712
-0.000150282
0.00144585
-7.14836e-05
5.55971e-06
0.00144785
1.52368e-05
-0.000734673
1.12458e-05
4.24628e-05
-0.000710587
7.0598e-05
-0.000689342
9.97825e-05
-0.000682346
0.000130065
-0.000671311
0.000161535
-0.000666516
0.000194306
-0.000669565
0.000228406
-0.000665416
0.000263981
-0.000670342
0.000301015
-0.000665653
0.000339642
-0.000666974
0.000379671
-0.000655748
0.000421551
-0.000660745
0.000465332
-0.00067055
0.000511066
-0.000674596
0.000557971
-0.000656065
0.000606681
-0.000658914
0.000656608
-0.000651319
0.000707646
-0.000646277
0.000759776
-0.000643386
0.000812028
-0.000632085
0.000864757
-0.000628004
0.000917247
-0.000619179
0.000969266
-0.000610544
0.00102073
-0.000602248
0.00107095
-0.000590155
0.00112014
-0.000578971
0.00116776
-0.000564123
0.00121375
-0.00054728
0.00125781
-0.000527241
0.00129964
-0.000503018
0.00133902
-0.000474557
0.00137549
-0.000440462
0.00140877
-0.000400561
0.0014383
-0.000353858
0.00146369
-0.000299561
0.0014843
-0.000237124
0.00149959
-0.000165571
0.00150907
-8.09635e-05
3.1767e-06
0.00151145
1.76223e-05
-0.000762214
9.91857e-06
4.59618e-05
-0.000738927
7.52537e-05
-0.000718634
0.000105626
-0.000712718
0.000137126
-0.000702811
0.000169835
-0.000699225
0.000203855
-0.000703585
0.000239212
-0.000700773
0.000276035
-0.000707165
0.000314313
-0.000703932
0.000354165
-0.000706826
0.000395432
-0.000697015
0.000438502
-0.000703815
0.000483431
-0.000715479
0.000530277
-0.000721442
0.000578377
-0.000704166
0.000628299
-0.000708835
0.000679544
-0.000702564
0.000732028
-0.000698761
0.000785746
-0.000697104
0.00083981
-0.000686149
0.000894532
-0.000682725
0.000949219
-0.000673867
0.00100361
-0.000664939
0.0010576
-0.000656231
0.00111045
-0.000643005
0.00116233
-0.000630849
0.00121266
-0.000614454
0.00126133
-0.000595949
0.00130802
-0.000573934
0.00135237
-0.000547369
0.00139415
-0.000516343
0.00143286
-0.000479168
0.00146821
-0.000435909
0.0014996
-0.000385247
0.00152661
-0.000326574
0.00154859
-0.000259103
0.00156496
-0.000181944
0.00157523
-9.12286e-05
3.84422e-07
0.00157802
2.00831e-05
-0.000790884
8.58654e-06
4.96084e-05
-0.000768452
8.0133e-05
-0.000749158
0.000111775
-0.00074436
0.000144579
-0.000735616
0.000178622
-0.000733267
0.000213993
-0.000738957
0.000250721
-0.0007375
0.000288917
-0.000745362
0.000328577
-0.000743591
0.000369804
-0.000748053
0.000412466
-0.000739677
0.000456898
-0.000748247
0.000503158
-0.000761739
0.000551303
-0.000769587
0.000600768
-0.000753631
0.000652057
-0.000760125
0.000704747
-0.000755254
0.000758773
-0.000752787
0.000814139
-0.00075247
0.000870042
-0.000742052
0.000926754
-0.000739437
0.00098362
-0.000730732
0.00104037
-0.000721684
0.00109684
-0.000712707
0.00115231
-0.000698472
0.00120688
-0.00068542
0.00125994
-0.000667514
0.00131133
-0.00064734
0.0013607
-0.000623304
0.00140764
-0.000594311
0.0014519
-0.000560606
0.00149293
-0.000520197
0.00153043
-0.000473404
0.00156375
-0.000418571
0.00159247
-0.000355288
0.00161588
-0.000282513
0.00163339
-0.000199454
0.00164447
-0.000102316
-2.83965e-06
0.0016477
2.26269e-05
-0.000820753
7.24257e-06
5.34112e-05
-0.000799237
8.52452e-05
-0.000780992
0.000118237
-0.000777352
0.000152433
-0.000769812
0.000187901
-0.000768735
0.000224726
-0.000775781
0.000262933
-0.000775707
0.000302623
-0.000785052
0.000343794
-0.000784762
0.000386538
-0.000790797
0.000430743
-0.000783882
0.0004767
-0.000794204
0.000524463
-0.000809502
0.000574087
-0.000819211
0.000625088
-0.000804631
0.00067791
-0.000812946
0.000732191
-0.000809535
0.000787881
-0.000808477
0.000844989
-0.000809578
0.000902793
-0.000799857
0.00096153
-0.000798175
0.00102059
-0.000789789
0.00107968
-0.000780778
0.00113864
-0.000771669
0.00119672
-0.000756554
0.00125399
-0.000742687
0.0013098
-0.000723322
0.00136395
-0.000701488
0.00141604
-0.0006754
0.00146564
-0.000643907
0.00151245
-0.000607415
0.00155588
-0.000563626
0.0015956
-0.000513124
0.00163093
-0.000453906
0.00166142
-0.000385772
0.00168632
-0.000307416
0.00170502
-0.000218151
0.00171696
-0.00011426
-6.51622e-06
0.00172064
2.52607e-05
-0.000851895
5.88091e-06
5.73785e-05
-0.000831354
9.05995e-05
-0.000814213
0.000125024
-0.000811777
0.000160698
-0.000805486
0.000197685
-0.000805722
0.000236062
-0.000814159
0.000275855
-0.0008155
0.000317155
-0.000826352
0.000359962
-0.000827569
0.000404358
-0.000835193
0.000450248
-0.000829772
0.000497883
-0.000841839
0.000547315
-0.000858934
0.000598594
-0.00087049
0.000651299
-0.000857337
0.000705823
-0.00086747
0.000761853
-0.000865564
0.000819346
-0.00086597
0.000878314
-0.000868546
0.000938111
-0.000859654
0.000998941
-0.000859005
0.00106023
-0.00085108
0.0011217
-0.000842248
0.00118316
-0.000833131
0.00124388
-0.000817265
0.00130386
-0.000802667
0.00136244
-0.000781902
0.00141938
-0.000758428
0.00147424
-0.000730267
0.00152655
-0.000696214
0.00157597
-0.000656837
0.00162187
-0.000609526
0.00166389
-0.000555141
0.00170131
-0.000491323
0.00173363
-0.000418093
0.00176008
-0.000333871
0.00178002
-0.000238082
0.00179285
-0.000127095
-1.06641e-05
0.001797
2.79906e-05
-0.000884382
4.49705e-06
6.15181e-05
-0.000864882
9.62055e-05
-0.000848901
0.000132147
-0.000847718
0.000169387
-0.000842726
0.000207985
-0.000844321
0.000248014
-0.000854187
0.000289499
-0.000856984
0.000332523
-0.000869376
0.000377087
-0.000872134
0.000423266
-0.000881371
0.000470978
-0.000877484
0.000520441
-0.000891302
0.000571701
-0.000910195
0.000624803
-0.000923591
0.000679381
-0.000911915
0.000735776
-0.000923866
0.000793717
-0.000923505
0.000853166
-0.000925419
0.000914133
-0.000929514
0.000976037
-0.000921558
0.00103905
-0.000922022
0.00110265
-0.000914678
0.00116655
-0.000906146
0.00123055
-0.000897132
0.00129392
-0.000880637
0.00135664
-0.000865388
0.00141803
-0.000843289
0.0014778
-0.000818198
0.00153549
-0.000787953
0.00159056
-0.000751287
0.00164266
-0.000708932
0.00169109
-0.000657965
0.00173548
-0.000599526
0.00177505
-0.000530893
0.00180927
-0.000452317
0.00183734
-0.000361937
0.00185855
-0.000259294
0.0018723
-0.000140849
-1.52997e-05
0.00187694
3.08218e-05
-0.000918292
3.0878e-06
6.58371e-05
-0.000899897
0.000102073
-0.000885136
0.000139615
-0.000885261
0.000178511
-0.000881622
0.000218816
-0.000884626
0.000260597
-0.000895968
0.00030388
-0.000900268
0.00034874
-0.000914236
0.000395183
-0.000918576
0.000443272
-0.000929461
0.000492941
-0.000927153
0.000544377
-0.000942738
0.000597621
-0.000963438
0.000652709
-0.00097868
0.000709324
-0.00096853
0.000767761
-0.000982303
0.00082778
-0.000983524
0.000889345
-0.000986983
0.000952462
-0.00099263
0.00101661
-0.000985702
0.00108192
-0.000987341
0.00114793
-0.000980679
0.00121433
-0.000972551
0.00128093
-0.000963735
0.00134702
-0.000946722
0.00141253
-0.000930895
0.00147676
-0.000907525
0.00153941
-0.000880845
0.00159996
-0.000848508
0.00165786
-0.000809183
0.00171269
-0.000763763
0.00176373
-0.00070901
0.00181055
-0.000646344
0.00185234
-0.000572682
0.00188853
-0.000488505
0.00191826
-0.000391666
0.0019408
-0.00028183
0.0019555
-0.000155552
-2.04371e-05
0.00196064
3.37583e-05
-0.000953701
1.65118e-06
7.03423e-05
-0.000936481
0.00010821
-0.000923003
0.000147442
-0.000924494
0.000188085
-0.000922265
0.000230193
-0.000926734
0.000273827
-0.000939602
0.000319016
-0.000945456
0.000365827
-0.000961046
0.000414267
-0.000967017
0.000464396
-0.00097959
0.000516154
-0.000978911
0.000569706
-0.00099629
0.000625084
-0.00101882
0.000682321
-0.00103592
0.000741137
-0.00102735
0.000801785
-0.00104295
0.000864051
-0.00104579
0.000927897
-0.00105083
0.000993323
-0.00105806
0.00105985
-0.00105223
0.00112761
-0.0010551
0.00119613
-0.0010492
0.00126514
-0.00104156
0.00133443
-0.00103302
0.0014033
-0.00101559
0.00147165
-0.00099925
0.0015388
-0.000974669
0.00160438
-0.000946424
0.00166786
-0.000911989
0.00172864
-0.000869963
0.00178627
-0.000821392
0.00183998
-0.000762726
0.0018893
-0.000695664
0.00193338
-0.000616755
0.00197159
-0.000526717
0.00200304
-0.000423113
0.00202694
-0.000305733
0.00204262
-0.000171228
-2.6088e-05
0.00204827
3.68037e-05
-0.000990692
1.86476e-07
7.50396e-05
-0.000974717
0.000114625
-0.000962589
0.000155637
-0.000965506
0.000198122
-0.00096475
0.000242132
-0.000970743
0.000287724
-0.000985194
0.000334927
-0.00099266
0.000383803
-0.00100992
0.000434363
-0.00101758
0.000486659
-0.00103188
0.00054064
-0.00103289
0.000596449
-0.0010521
0.000654113
-0.00107648
0.000713658
-0.00109546
0.000774836
-0.00108852
0.000837864
-0.00110598
0.000902547
-0.00111047
0.000968844
-0.00111713
0.00103675
-0.00112596
0.00110582
-0.00112131
0.00117616
-0.00112543
0.00124733
-0.00112037
0.00131907
-0.0011133
0.00139115
-0.0011051
0.00146289
-0.00108734
0.00153418
-0.00107053
0.0016043
-0.00104479
0.00167288
-0.001015
0.00173936
-0.000978464
0.00180309
-0.000933695
0.00186358
-0.000881887
0.00192004
-0.000819183
0.00197193
-0.000747553
0.00201835
-0.000663178
0.00205865
-0.000567013
0.00209187
-0.000456329
0.00211718
-0.000331042
0.00213385
-0.000187903
-3.22616e-05
0.00214002
3.996e-05
-0.00102935
-1.30574e-06
7.99342e-05
-0.00101469
0.000121328
-0.00100398
0.000164213
-0.00100839
0.000208638
-0.00100917
0.00025465
-0.00101676
0.000302306
-0.00103285
0.000351636
-0.00104199
0.000402695
-0.00106098
0.000455497
-0.00107038
0.000510088
-0.00108648
0.000566428
-0.00108923
0.000624636
-0.00111031
0.000684736
-0.00113658