/*--------------------------------*- C++ -*----------------------------------*\
| =========                 |                                                 |
| \\      /  F ield         | OpenFOAM: The Open Source CFD Toolbox           |
|  \\    /   O peration     | Version:  5.x                                   |
|   \\  /    A nd           | Web:      www.OpenFOAM.org                      |
|    \\/     M anipulation  |                                                 |
\*---------------------------------------------------------------------------*/
FoamFile
{
    version     2.0;
    format      ascii;
    class       volVectorField;
    location    "300";
    object      U;
}
// * * * * * * * * * * * * * * * * * * * * * * * * * * * * * * * * * * * * * //

dimensions      [0 1 -1 0 0 0 0];

internalField   nonuniform List<vector> 
26000
(
(0.574076 1.90314e-22 -0.251004)
(0.554211 -2.30739e-22 0.196106)
(0.62016 7.63502e-20 0.517929)
(0.733278 -9.88389e-20 0.715802)
(0.860551 1.46754e-19 0.816753)
(0.983199 2.50853e-19 0.854876)
(1.09437 0 0.859924)
(1.19185 0 0.84358)
(1.27419 0 0.816051)
(1.34406 6.28162e-19 0.783715)
(1.40188 -6.89749e-19 0.748724)
(1.4521 0 0.716906)
(1.49228 0 0.677359)
(1.52417 -5.50326e-19 0.638183)
(1.55346 -1.69511e-20 0.606839)
(1.58018 5.56545e-19 0.575769)
(1.60103 0 0.543505)
(1.61839 -1.14238e-18 0.511715)
(1.63274 0 0.481884)
(1.64466 0 0.453388)
(1.65492 0 0.426007)
(1.66283 -5.61394e-19 0.399945)
(1.66935 2.21157e-18 0.374798)
(1.6744 -5.43632e-19 0.350785)
(1.67789 -7.86161e-21 0.327661)
(1.68045 0 0.305516)
(1.68168 -5.24361e-19 0.284421)
(1.68211 1.03307e-18 0.264078)
(1.68153 -1.52075e-18 0.24457)
(1.68013 -1.00303e-18 0.225841)
(1.67809 9.85843e-19 0.207849)
(1.67525 0 0.190538)
(1.67181 0 0.173791)
(1.66751 -1.43182e-18 0.157682)
(1.66263 -3.42537e-22 0.14212)
(1.65705 4.69898e-19 0.12718)
(1.65046 2.34212e-19 0.1126)
(1.64444 1.14568e-19 0.0989544)
(1.63037 1.03799e-18 0.0840971)
(1.6183 2.68993e-21 0.0724216)
(0.753008 0 -0.168652)
(0.69348 5.03682e-21 0.0130348)
(0.704044 2.1316e-20 0.208932)
(0.771644 -9.32502e-20 0.37526)
(0.87105 -9.38425e-20 0.499173)
(0.98137 -1.5783e-19 0.581643)
(1.09019 2.63517e-19 0.631708)
(1.19105 -9.87318e-20 0.655071)
(1.27978 -4.84289e-19 0.661076)
(1.35617 -6.1072e-19 0.654445)
(1.42064 6.60808e-19 0.639552)
(1.47477 0 0.622222)
(1.52195 3.67742e-19 0.597816)
(1.56066 -3.64352e-19 0.574588)
(1.59423 0 0.55036)
(1.62402 -4.06821e-19 0.524528)
(1.64947 -1.09083e-20 0.499205)
(1.67102 4.08164e-19 0.473933)
(1.68898 0 0.449471)
(1.70433 8.23447e-19 0.425116)
(1.71724 4.20443e-19 0.401466)
(1.72799 -4.10097e-19 0.378662)
(1.73694 0 0.356254)
(1.74421 8.10941e-19 0.334695)
(1.75005 -9.70722e-21 0.313667)
(1.75471 0 0.293368)
(1.75828 -7.85492e-19 0.273715)
(1.76088 -7.79789e-19 0.254474)
(1.76251 7.76634e-19 0.235809)
(1.76322 0 0.217704)
(1.76316 -3.8356e-19 0.200162)
(1.76233 3.72197e-19 0.183147)
(1.76083 0 0.166597)
(1.75859 0 0.150564)
(1.75571 -3.64579e-19 0.13499)
(1.75219 -3.63623e-19 0.119896)
(1.748 0 0.105101)
(1.74299 -7.30228e-19 0.0910684)
(1.73861 -2.82085e-21 0.0758444)
(1.7341 2.55283e-21 0.0649551)
(0.893683 3.20366e-20 -0.144183)
(0.835815 -5.30843e-20 -0.0393563)
(0.804805 -9.84141e-20 0.0904067)
(0.811904 4.29233e-20 0.228505)
(0.855829 0 0.355828)
(0.926168 -2.15324e-20 0.459922)
(1.01156 -1.35735e-19 0.537504)
(1.10219 5.76661e-20 0.588696)
(1.19052 3.12421e-19 0.617893)
(1.27179 0 0.629603)
(1.34387 -3.83201e-19 0.628418)
(1.40538 2.02225e-19 0.619795)
(1.46031 -4.76024e-19 0.603437)
(1.50867 -1.2241e-20 0.583757)
(1.55056 2.58178e-19 0.561509)
(1.58625 5.55642e-19 0.538776)
(1.61717 2.92346e-19 0.515219)
(1.64412 -2.94367e-19 0.49092)
(1.66696 3.0758e-19 0.466671)
(1.68682 -9.21054e-19 0.442247)
(1.70371 0 0.418567)
(1.7181 3.13926e-19 0.395313)
(1.73046 -3.11768e-19 0.372455)
(1.74083 -6.31021e-19 0.350332)
(1.74958 -6.25241e-19 0.3286)
(1.7568 -6.27006e-19 0.307686)
(1.7627 6.1932e-19 0.28733)
(1.76745 4.66067e-21 0.2675)
(1.77106 1.21561e-18 0.248267)
(1.77365 -1.50168e-18 0.229557)
(1.77534 -3.01163e-19 0.211464)
(1.77621 5.89218e-19 0.193862)
(1.77634 -5.8822e-19 0.176809)
(1.77574 2.90271e-19 0.16023)
(1.77449 8.78674e-19 0.144168)
(1.77263 0 0.128567)
(1.77014 5.84155e-19 0.113367)
(1.76714 -4.38774e-19 0.0986651)
(1.76288 -1.28588e-18 0.0828419)
(1.75873 3.05428e-19 0.0705741)
(0.998113 -2.28532e-20 -0.119437)
(0.95237 4.08341e-20 -0.0544673)
(0.913316 4.32931e-20 0.029382)
(0.893977 4.30265e-20 0.129094)
(0.901535 1.23364e-20 0.234444)
(0.935176 7.31783e-20 0.333935)
(0.990132 -1.03576e-19 0.419827)
(1.05933 0 0.487021)
(1.13525 0 0.534633)
(1.21135 -2.25548e-19 0.563738)
(1.28316 5.32381e-19 0.577537)
(1.34702 -4.69663e-19 0.580126)
(1.40516 3.27145e-19 0.573986)
(1.45829 -1.76393e-19 0.562085)
(1.50525 -1.78298e-19 0.545182)
(1.54513 -6.18708e-19 0.526259)
(1.57969 -4.16788e-19 0.505859)
(1.61019 -2.12704e-19 0.484153)
(1.63633 2.25621e-19 0.461885)
(1.65923 0 0.439043)
(1.67884 4.71526e-19 0.416502)
(1.69567 -4.72874e-19 0.394171)
(1.71028 -4.86315e-19 0.372034)
(1.72268 9.67432e-19 0.350446)
(1.73333 0 0.32915)
(1.74229 0 0.308529)
(1.7498 1.4578e-18 0.288417)
(1.75605 3.73212e-22 0.268764)
(1.76109 -3.49855e-21 0.249663)
(1.76507 9.6336e-19 0.231017)
(1.76805 -4.77766e-19 0.21295)
(1.77017 -4.75291e-19 0.19534)
(1.77147 9.47659e-19 0.178251)
(1.77201 2.32153e-19 0.161616)
(1.77186 -2.34988e-19 0.145458)
(1.7711 -4.66959e-19 0.129755)
(1.7697 -4.72365e-19 0.114428)
(1.76783 1.94827e-21 0.09958)
(1.76484 4.59377e-19 0.0839684)
(1.76166 9.71245e-22 0.0708802)
(1.06728 2.59173e-20 -0.0993762)
(1.0334 4.20224e-20 -0.0545925)
(0.998936 0 0.00207179)
(0.972502 6.92312e-21 0.0724237)
(0.961633 1.02686e-20 0.153181)
(0.970148 -9.49475e-20 0.237751)
(0.998566 9.80412e-20 0.319423)
(1.04431 0 0.39162)
(1.10241 0 0.450178)
(1.16704 8.18413e-20 0.492846)
(1.23289 -1.03622e-19 0.520325)
(1.29482 -2.12282e-19 0.534545)
(1.35334 0 0.538655)
(1.40871 2.66984e-19 0.535451)
(1.45912 4.29053e-19 0.525295)
(1.50235 -1.5049e-19 0.511281)
(1.54 3.24348e-19 0.494613)
(1.57349 5.13079e-19 0.475956)
(1.60251 -5.27343e-19 0.456015)
(1.62815 -3.6133e-19 0.434982)
(1.65021 -3.76065e-19 0.413809)
(1.66926 3.77447e-19 0.392499)
(1.68591 3.84248e-19 0.371173)
(1.70014 -7.71736e-19 0.350187)
(1.71249 0 0.329347)
(1.72297 3.93539e-19 0.309064)
(1.73186 -1.16178e-18 0.289197)
(1.73939 -3.9041e-19 0.269732)
(1.74562 -7.80757e-19 0.250768)
(1.75072 7.73899e-19 0.232209)
(1.75477 -3.88331e-19 0.214195)
(1.7579 0 0.196611)
(1.76018 -3.89332e-19 0.179532)
(1.76169 -1.93049e-19 0.162884)
(1.76246 4.15313e-22 0.146698)
(1.76258 5.76389e-19 0.13095)
(1.76206 0 0.115573)
(1.76103 3.89145e-19 0.100657)
(1.75909 7.50185e-19 0.0851197)
(1.75683 2.06458e-19 0.0715807)
(1.11978 -1.87877e-20 -0.0841304)
(1.09397 -3.57879e-20 -0.0509503)
(1.06567 0 -0.0104708)
(1.0399 -3.32639e-20 0.0399584)
(1.02205 1.80528e-20 0.100335)
(1.0165 -8.09579e-23 0.167958)
(1.02608 5.67091e-22 0.238876)
(1.05159 9.59783e-20 0.307696)
(1.09118 -1.313e-19 0.369476)
(1.1412 0 0.420065)
(1.197 6.51387e-20 0.457897)
(1.25324 3.26807e-19 0.482481)
(1.30901 6.28111e-21 0.496543)
(1.36396 6.40337e-21 0.502369)
(1.41579 -3.13344e-19 0.499856)
(1.46124 1.21201e-19 0.491638)
(1.5013 -3.66046e-19 0.479416)
(1.53726 -2.68438e-19 0.464359)
(1.56873 -8.23002e-21 0.447227)
(1.59678 2.79551e-19 0.428434)
(1.62107 3.00208e-19 0.408976)
(1.64218 5.96137e-19 0.388983)
(1.66073 -6.11361e-19 0.368703)
(1.6767 3.15039e-19 0.348507)
(1.69065 -6.1961e-19 0.328285)
(1.70257 3.50888e-21 0.308464)
(1.71277 3.23533e-19 0.288948)
(1.72149 -6.40245e-19 0.269764)
(1.72882 0 0.251012)
(1.73493 -9.67267e-19 0.232606)
(1.73992 1.2925e-18 0.214695)
(1.74394 -3.19892e-19 0.19718)
(1.74705 6.43835e-19 0.180148)
(1.74935 0 0.16353)
(1.7509 0 0.147354)
(1.75177 -3.21709e-19 0.131602)
(1.75198 0 0.116216)
(1.75165 0 0.101267)
(1.75055 -3.15806e-19 0.0858062)
(1.74903 -5.18258e-19 0.0719973)
(1.16125 0 -0.0720597)
(1.14109 0 -0.046269)
(1.11819 -3.43563e-20 -0.0158866)
(1.09551 6.78281e-20 0.0213932)
(1.07648 0 0.0666364)
(1.06452 0 0.119277)
(1.06271 -7.42736e-20 0.177713)
(1.0734 -9.4965e-20 0.238531)
(1.09701 1.05105e-19 0.297625)
(1.13222 0 0.350536)
(1.17599 -2.74795e-19 0.394399)
(1.22381 1.25521e-19 0.426755)
(1.27404 -6.64734e-20 0.449383)
(1.32597 0 0.463747)
(1.377 8.43554e-20 0.46917)
(1.42315 2.82768e-19 0.467395)
(1.46467 7.62196e-21 0.460312)
(1.50246 2.08596e-19 0.449453)
(1.53593 -5.94948e-21 0.43565)
(1.56607 2.26024e-19 0.419558)
(1.59238 -2.44896e-19 0.40219)
(1.6154 -2.53217e-19 0.383818)
(1.63574 7.6568e-19 0.364834)
(1.65336 -5.16137e-19 0.345636)
(1.66884 5.19318e-19 0.326204)
(1.68214 2.64427e-19 0.306988)
(1.6936 0 0.287939)
(1.70349 5.40376e-19 0.269125)
(1.71187 0 0.250658)
(1.71897 0 0.232474)
(1.72486 2.71878e-19 0.214724)
(1.7297 -1.07787e-18 0.197325)
(1.73357 -5.47725e-19 0.180372)
(1.73659 8.10079e-19 0.163809)
(1.73882 1.36835e-19 0.147667)
(1.74034 -5.42609e-19 0.131934)
(1.74119 -2.73881e-19 0.11656)
(1.74146 -6.87861e-20 0.101602)
(1.74104 -3.33245e-19 0.0862045)
(1.74015 1.47473e-19 0.0722285)
(1.1951 1.62164e-20 -0.0622877)
(1.17899 0 -0.041543)
(1.16038 2.90199e-20 -0.0178078)
(1.14114 4.33737e-21 0.0107023)
(1.12337 0 0.0451873)
(1.1094 0 0.0859805)
(1.1017 4.52041e-20 0.13288)
(1.10286 1.69431e-20 0.184183)
(1.1144 3.69724e-20 0.237156)
(1.13674 -8.01978e-20 0.28805)
(1.1685 -2.68843e-22 0.333737)
(1.20661 4.93035e-20 0.370641)
(1.24935 0 0.399584)
(1.29604 0 0.421151)
(1.34412 1.32483e-19 0.434046)
(1.38929 1.54467e-19 0.438848)
(1.43106 -4.7111e-19 0.437327)
(1.46983 -1.74534e-19 0.431144)
(1.5047 -1.84541e-19 0.421142)
(1.5365 -1.91718e-19 0.408198)
(1.56454 1.9763e-19 0.393321)
(1.58928 0 0.376918)
(1.6113 0 0.359516)
(1.63048 -2.18141e-19 0.341548)
(1.64743 4.36498e-19 0.323099)
(1.66208 -6.69091e-19 0.304646)
(1.67477 -2.25658e-19 0.286191)
(1.68578 2.26666e-19 0.267849)
(1.6952 0 0.249752)
(1.70326 -2.30301e-19 0.231861)
(1.71002 1.59155e-21 0.214332)
(1.71567 -2.26485e-19 0.197101)
(1.72028 0 0.180272)
(1.72398 -4.64862e-19 0.163797)
(1.72684 4.67476e-19 0.147715)
(1.72895 4.68622e-19 0.132022)
(1.73037 7.08094e-19 0.116677)
(1.73117 2.95949e-19 0.101728)
(1.73134 -2.85354e-19 0.086388)
(1.73099 4.99445e-22 0.0723115)
(1.22342 -2.5208e-20 -0.0542189)
(1.21031 2.5206e-20 -0.0371081)
(1.19502 3.49257e-20 -0.0179788)
(1.17886 -5.94497e-20 0.00451701)
(1.16312 -1.35541e-20 0.0314187)
(1.14933 1.41541e-20 0.0633197)
(1.13921 0 0.100665)
(1.13495 3.20372e-20 0.14286)
(1.13834 3.19993e-20 0.188407)
(1.1507 1.03654e-19 0.234635)
(1.17193 -3.7136e-20 0.27884)
(1.20042 1.28758e-19 0.317181)
(1.23482 -9.15957e-20 0.349807)
(1.27477 -5.47277e-20 0.376617)
(1.31813 1.08722e-19 0.395794)
(1.36068 -2.43886e-19 0.406717)
(1.40136 2.6689e-19 0.410782)
(1.44008 1.45299e-19 0.409529)
(1.4756 -1.48622e-19 0.403689)
(1.5085 -1.60286e-19 0.39428)
(1.53789 -4.70374e-21 0.382259)
(1.56409 3.44098e-19 0.36816)
(1.5876 1.77957e-19 0.352635)
(1.60823 0 0.33615)
(1.62656 3.69339e-19 0.3189)
(1.64251 3.85724e-19 0.301387)
(1.6564 1.93228e-19 0.28367)
(1.66852 1.94738e-19 0.265921)
(1.67895 -1.97473e-19 0.248288)
(1.68795 1.96762e-19 0.230768)
(1.69557 4.00613e-19 0.213526)
(1.70201 3.99657e-19 0.19652)
(1.70735 -2.01915e-19 0.179861)
(1.71171 -9.07036e-22 0.163515)
(1.71519 -2.04802e-19 0.147525)
(1.71786 0 0.131897)
(1.71981 -4.11672e-19 0.116602)
(1.7211 -2.06758e-19 0.101678)
(1.72178 3.97708e-19 0.0863959)
(1.7219 1.12278e-19 0.0722645)
(1.24756 1.29365e-20 -0.0474399)
(1.23674 -2.53193e-20 -0.0330543)
(1.22404 -2.46798e-20 -0.0172622)
(1.21045 0 0.000963526)
(1.19682 0 0.0224553)
(1.18413 5.26167e-20 0.0478028)
(1.1735 0 0.0776585)
(1.16659 -1.0987e-19 0.11202)
(1.165 -2.88654e-20 0.150247)
(1.17032 6.18506e-20 0.190671)
(1.1832 7.54063e-22 0.231295)
(1.20317 -1.82451e-19 0.268606)
(1.22943 7.96225e-20 0.302426)
(1.26202 -6.26086e-23 0.332284)
(1.29947 9.03387e-20 0.356075)
(1.33805 3.11988e-19 0.372142)
(1.37634 0 0.38137)
(1.4139 -2.37487e-19 0.384974)
(1.44921 1.3005e-19 0.383439)
(1.48254 -1.31164e-19 0.37782)
(1.51278 1.44792e-19 0.368952)
(1.54009 -1.44676e-19 0.357468)
(1.56483 -3.082e-19 0.344102)
(1.58674 -1.53793e-19 0.329352)
(1.60635 -4.80523e-19 0.31352)
(1.62351 -4.95257e-19 0.297134)
(1.63855 3.32092e-19 0.280318)
(1.65176 -3.38712e-19 0.263292)
(1.66318 -5.09637e-19 0.246232)
(1.67309 0 0.229172)
(1.68156 -1.74469e-19 0.212292)
(1.68878 3.47387e-19 0.195572)
(1.69483 1.02264e-21 0.179136)
(1.69985 -1.74969e-19 0.162962)
(1.70392 -3.54746e-19 0.147103)
(1.70714 0 0.131569)
(1.7096 0 0.116345)
(1.71135 9.06537e-20 0.101468)
(1.71251 -6.10846e-19 0.0862491)
(1.71304 -1.94459e-19 0.0720964)
(1.26845 0 -0.041659)
(1.2594 -5.90907e-21 -0.0293812)
(1.24875 9.32967e-23 -0.0160964)
(1.23727 5.81743e-21 -0.00100706)
(1.22555 4.7507e-20 0.0165396)
(1.21425 2.5649e-20 0.037048)
(1.20406 -2.45017e-20 0.0611736)
(1.19618 7.4326e-20 0.0891693)
(1.19187 -2.63588e-20 0.120898)
(1.19262 2.79355e-20 0.155439)
(1.19939 3.75736e-22 0.191486)
(1.21247 3.17923e-20 0.226147)
(1.2315 0 0.259182)
(1.25692 -3.71382e-19 0.290043)
(1.28796 1.5561e-19 0.316612)
(1.32167 8.53107e-20 0.336502)
(1.35652 0 0.350072)
(1.39188 2.06446e-19 0.358112)
(1.42607 0 0.360765)
(1.45907 -2.26889e-19 0.359009)
(1.48959 0 0.353473)
(1.51756 2.56042e-19 0.344833)
(1.54323 1.49674e-21 0.333871)
(1.56618 5.45984e-19 0.321092)
(1.58689 -2.76014e-19 0.306897)
(1.60517 2.8979e-19 0.291825)
(1.62128 -3.60577e-21 0.276073)
(1.63551 2.94315e-19 0.25991)
(1.64789 5.98404e-19 0.243541)
(1.65871 3.00503e-19 0.22704)
(1.66801 3.04359e-19 0.210604)
(1.67599 1.5344e-19 0.194238)
(1.68274 -3.10118e-19 0.178082)
(1.6884 1.54314e-19 0.162128)
(1.69307 6.28258e-19 0.14644)
(1.69682 -3.13374e-19 0.131035)
(1.69977 -3.97742e-19 0.11591)
(1.70197 -2.01259e-22 0.101101)
(1.70356 7.35094e-19 0.0859581)
(1.70449 1.30489e-19 0.0718119)
(1.28673 0 -0.0366667)
(1.2791 2.23313e-20 -0.0260592)
(1.27009 0 -0.0147141)
(1.26034 0 -0.00199923)
(1.25028 -5.31894e-20 0.0125978)
(1.24035 -7.67259e-20 0.0294871)
(1.23101 -4.58288e-20 0.0492508)
(1.22309 -4.75099e-20 0.0722184)
(1.21752 0 0.0985034)
(1.21554 -2.54588e-20 0.127668)
(1.21815 2.66467e-20 0.158951)
(1.22602 -5.86451e-20 0.190132)
(1.23911 0 0.221056)
(1.25813 1.29712e-19 0.251287)
(1.28291 -2.78597e-19 0.278919)
(1.31136 -1.55136e-19 0.301192)
(1.34207 -8.32453e-20 0.318027)
(1.3744 8.67584e-20 0.329791)
(1.40663 0 0.336248)
(1.43854 1.99863e-19 0.338207)
(1.4687 0 0.336023)
(1.49684 -4.53217e-21 0.330356)
(1.52302 -2.37716e-19 0.321972)
(1.54673 2.36256e-19 0.311357)
(1.56834 2.49965e-19 0.298992)
(1.58757 -2.50293e-19 0.285416)
(1.60465 -2.56565e-19 0.270891)
(1.61983 2.98083e-21 0.255732)
(1.63312 -7.87974e-19 0.240175)
(1.6448 -1.06493e-18 0.224338)
(1.6549 -5.14564e-24 0.208434)
(1.66363 -8.10366e-19 0.192498)
(1.67107 -2.74452e-19 0.176683)
(1.67736 0 0.161001)
(1.6826 -2.80275e-19 0.145527)
(1.68689 2.80566e-19 0.130289)
(1.69031 2.84798e-19 0.115292)
(1.69295 7.16219e-20 0.100578)
(1.69496 -3.46018e-19 0.0855276)
(1.69625 -1.54527e-19 0.0714125)
(1.30291 0 -0.0323079)
(1.29641 -4.60998e-20 -0.02305)
(1.28873 -4.95024e-21 -0.0132412)
(1.2804 -3.03832e-20 -0.00237126)
(1.27175 0 0.00996651)
(1.26309 6.06253e-20 0.0241004)
(1.25472 2.00504e-20 0.040523)
(1.24722 6.49391e-20 0.0595581)
(1.24125 -2.29857e-20 0.081421)
(1.2378 0 0.105955)
(1.23777 -5.02678e-20 0.132768)
(1.24193 -6.15825e-22 0.160236)
(1.25045 0 0.188333)
(1.26412 -1.1787e-19 0.216814)
(1.28325 6.04969e-20 0.244116)
(1.30652 1.34921e-19 0.267427)
(1.33279 7.07049e-20 0.28637)
(1.36152 1.57733e-19 0.300957)
(1.39114 -1.62572e-19 0.310616)
(1.42127 1.72586e-19 0.315928)
(1.45045 0 0.316947)
(1.47821 -1.9427e-19 0.314244)
(1.50449 2.00878e-19 0.308516)
(1.52861 0 0.300199)
(1.55084 4.26855e-19 0.289817)
(1.57083 -2.253e-19 0.277892)
(1.58874 -4.53261e-19 0.264745)
(1.60476 4.63031e-19 0.250728)
(1.61889 2.3572e-19 0.236105)
(1.63137 1.42553e-18 0.221037)
(1.64224 -7.20474e-19 0.205755)
(1.65169 7.29096e-19 0.190327)
(1.6598 -2.41654e-19 0.17492)
(1.66671 -2.45297e-19 0.159566)
(1.67252 0 0.144354)
(1.67732 0 0.129321)
(1.68121 0 0.114487)
(1.68428 -6.431e-20 0.0998946)
(1.68669 9.30996e-20 0.0849583)
(1.68833 1.04665e-19 0.0708979)
(1.31733 -9.76898e-21 -0.0284653)
(1.31177 1.89496e-20 -0.0203157)
(1.30518 0 -0.0117475)
(1.29803 3.68781e-20 -0.00234218)
(1.29057 -3.81649e-20 0.00822678)
(1.28303 0 0.020223)
(1.27562 0 0.0340551)
(1.26873 -5.9879e-20 0.050011)
(1.26286 -2.1895e-20 0.0683309)
(1.25875 4.36839e-20 0.0890058)
(1.25713 1.34196e-19 0.111871)
(1.25881 -4.8281e-20 0.13577)
(1.26397 5.03232e-20 0.160791)
(1.27343 5.23852e-20 0.186888)
(1.28776 -1.12463e-19 0.212873)
(1.30629 -6.10536e-20 0.236111)
(1.32817 6.32198e-20 0.256072)
(1.35307 1.3767e-19 0.272528)
(1.37963 0 0.28465)
(1.40743 -3.10225e-19 0.29279)
(1.43507 3.26281e-19 0.296698)
(1.46195 3.42674e-19 0.296809)
(1.48785 -3.56899e-19 0.293709)
(1.51201 -3.70345e-19 0.287738)
(1.53457 -3.84033e-19 0.279436)
(1.55509 0 0.269282)
(1.57364 2.02107e-19 0.257639)
(1.59038 -2.06699e-19 0.244886)
(1.60525 0 0.231312)
(1.61847 -4.27574e-19 0.217116)
(1.63005 4.34495e-19 0.202549)
(1.64019 2.18305e-19 0.187709)
(1.64894 4.42587e-19 0.172777)
(1.65644 -4.43125e-19 0.15781)
(1.6628 2.2458e-19 0.142909)
(1.6681 0 0.128124)
(1.67246 -2.29167e-19 0.113488)
(1.67594 0 0.0990476)
(1.67874 -2.52224e-19 0.084249)
(1.68072 3.23506e-20 0.0702669)
(1.33029 8.97861e-21 -0.0250487)
(1.3255 0 -0.0178217)
(1.31982 0 -0.0102714)
(1.31365 -8.73295e-21 -0.00205035)
(1.30719 4.38956e-20 0.00710723)
(1.30064 0 0.0174143)
(1.29411 1.88539e-20 0.0292087)
(1.28791 1.90127e-20 0.0427356)
(1.28237 3.83865e-20 0.0582244)
(1.27808 0 0.0757364)
(1.27562 4.31075e-20 0.0952341)
(1.27569 4.47373e-20 0.115904)
(1.27851 0 0.137914)
(1.28479 0 0.161374)
(1.29525 1.01135e-19 0.185443)
(1.30967 -1.1036e-19 0.207794)
(1.32751 0 0.22786)
(1.34861 1.62661e-21 0.245287)
(1.37191 -1.27529e-19 0.259095)
(1.39703 1.40826e-19 0.269435)
(1.42269 -4.39174e-19 0.275793)
(1.44823 -3.02084e-19 0.278446)
(1.47332 -6.37663e-19 0.277828)
(1.49714 8.30005e-19 0.274165)
(1.5197 -1.72461e-19 0.26797)
(1.54048 1.76131e-19 0.259658)
(1.55948 -1.822e-19 0.249612)
(1.57677 3.70729e-19 0.238224)
(1.59225 5.63464e-19 0.225799)
(1.60612 0 0.212571)
(1.61835 1.96025e-19 0.198805)
(1.62912 -5.86218e-19 0.18463)
(1.63847 -7.99394e-19 0.170243)
(1.64655 2.01034e-19 0.155722)
(1.65343 6.09925e-19 0.141183)
(1.65922 0 0.126691)
(1.66402 1.12611e-21 0.112288)
(1.66791 2.62681e-19 0.0980324)
(1.67109 -4.99738e-20 0.0833978)
(1.67339 -1.13744e-19 0.0695178)
(1.342 0 -0.0219875)
(1.33786 0 -0.0155375)
(1.33294 0 -0.0088343)
(1.3276 0 -0.00158578)
(1.322 0 0.00642666)
(1.31629 -1.68789e-20 0.0153767)
(1.31056 -5.17306e-20 0.0255444)
(1.30503 0 0.0371347)
(1.29994 7.39737e-20 0.0503527)
(1.29575 -3.79965e-20 0.065288)
(1.29291 -3.82063e-20 0.0819675)
(1.29201 -8.42432e-20 0.0998195)
(1.29326 0 0.119055)
(1.29724 0 0.139887)
(1.30469 0 0.16176)
(1.31571 -1.02292e-19 0.182702)
(1.32999 2.10354e-19 0.202186)
(1.34756 -9.62774e-22 0.219824)
(1.36762 3.55862e-19 0.234584)
(1.38989 -4.9352e-19 0.246468)
(1.41328 1.32742e-19 0.254764)
(1.43711 2.75036e-19 0.259588)
(1.46102 1.43376e-19 0.261211)
(1.48413 -4.50906e-19 0.259726)
(1.50637 1.55243e-19 0.255592)
(1.52714 1.60565e-19 0.249134)
(1.54635 1.60088e-19 0.240737)
(1.56402 1.66348e-19 0.230785)
(1.57998 -3.03737e-21 0.219589)
(1.59438 0 0.207411)
(1.60718 0 0.194525)
(1.61851 1.78528e-19 0.181088)
(1.62842 5.4466e-19 0.167312)
(1.63703 0 0.153296)
(1.64442 -7.41952e-19 0.13917)
(1.65067 2.78256e-19 0.125014)
(1.6559 -9.35884e-20 0.110885)
(1.66018 -1.44325e-19 0.0968456)
(1.66372 -4.56166e-20 0.0824026)
(1.66633 1.04134e-19 0.0686491)
(1.35264 3.99396e-21 -0.0192255)
(1.34905 -3.98635e-21 -0.0134366)
(1.34478 -3.15873e-20 -0.00744669)
(1.34014 3.14474e-20 -0.00100777)
(1.33527 0 0.00606193)
(1.33029 -3.2268e-20 0.0139055)
(1.32526 3.23135e-20 0.022756)
(1.32036 0 0.0327841)
(1.31577 -6.82007e-20 0.0441674)
(1.31182 0 0.0570018)
(1.30888 0 0.0713434)
(1.30745 -4.06437e-20 0.0867874)
(1.30768 4.00828e-20 0.103559)
(1.31005 -8.46416e-20 0.121928)
(1.31525 1.75311e-19 0.141552)
(1.32356 -9.32545e-20 0.160808)
(1.33485 -9.49696e-20 0.17925)
(1.34926 -3.07402e-19 0.196512)
(1.36627 -2.168e-19 0.211593)
(1.3857 2.2526e-19 0.224403)
(1.40667 -1.21395e-19 0.234103)
(1.42855 1.22624e-19 0.240669)
(1.45097 0 0.244217)
(1.47307 2.71964e-19 0.244706)
(1.49468 2.77197e-19 0.242513)
(1.51517 -5.81033e-19 0.237863)
(1.53437 -4.42146e-19 0.231119)
(1.55221 -1.50914e-19 0.222638)
(1.56849 -1.58765e-19 0.212728)
(1.58331 4.70766e-19 0.201663)
(1.59656 0 0.189722)
(1.60839 3.23176e-19 0.17709)
(1.6188 3.29688e-19 0.163985)
(1.62789 -1.66805e-19 0.150531)
(1.63575 6.78459e-19 0.136867)
(1.64244 -5.11504e-19 0.123093)
(1.64808 2.61042e-19 0.109274)
(1.65273 8.7604e-20 0.095485)
(1.65662 2.99083e-19 0.0812623)
(1.65953 4.74579e-20 0.0676599)
(1.36236 -3.77308e-21 -0.0167177)
(1.35923 -2.64956e-20 -0.0114964)
(1.35552 -3.95026e-22 -0.00611321)
(1.35147 -4.4377e-20 -0.000356154)
(1.34723 -1.4976e-20 0.00592747)
(1.34288 3.00677e-20 0.0128566)
(1.33848 0 0.0206267)
(1.33416 -3.23806e-20 0.0293795)
(1.33005 -9.84592e-20 0.0392667)
(1.32642 3.37577e-20 0.0503805)
(1.32355 -3.48747e-20 0.0627867)
(1.32186 7.25434e-20 0.076195)
(1.32147 0 0.0908261)
(1.32275 7.77798e-20 0.106972)
(1.3263 1.32515e-21 0.124439)
(1.33251 8.63649e-20 0.141916)
(1.34136 0 0.159048)
(1.35307 -1.13502e-21 0.175526)
(1.36733 2.96993e-19 0.190431)
(1.38407 0 0.203628)
(1.40261 2.19445e-19 0.214226)
(1.42241 2.26319e-19 0.222091)
(1.44314 0 0.227205)
(1.46397 -2.49152e-19 0.229405)
(1.48469 5.04878e-19 0.228974)
(1.50465 7.11431e-21 0.226029)
(1.5236 3.71667e-21 0.220892)
(1.54142 0 0.213881)
(1.55785 -2.23536e-21 0.20528)
(1.57294 -2.89202e-19 0.19537)
(1.58655 -2.92849e-19 0.184427)
(1.59879 -2.10953e-21 0.172652)
(1.60962 -1.54117e-19 0.160273)
(1.61915 4.55136e-19 0.14743)
(1.62743 3.09642e-19 0.134277)
(1.63453 -3.11779e-19 0.120925)
(1.64056 -3.17768e-19 0.107455)
(1.64556 0 0.0939496)
(1.64978 -1.97124e-19 0.0799762)
(1.65298 1.30671e-19 0.06655)
(1.37127 0 -0.0144276)
(1.36855 2.83543e-20 -0.00969735)
(1.3653 4.20837e-20 -0.00483507)
(1.36177 -4.095e-22 0.000341821)
(1.35807 -5.82003e-23 0.00596263)
(1.35427 -4.31876e-20 0.0121272)
(1.35042 1.25802e-22 0.0190003)
(1.34661 1.202e-19 0.0267)
(1.34296 9.26347e-20 0.0353554)
(1.33968 6.45466e-20 0.0450504)
(1.33698 -6.57889e-20 0.055851)
(1.33521 6.92085e-20 0.0675454)
(1.33447 -7.14592e-20 0.0803401)
(1.33502 4.91788e-22 0.0945246)
(1.33741 7.73487e-20 0.110006)
(1.34203 8.15493e-20 0.125733)
(1.34894 8.48798e-20 0.141438)
(1.3584 2.65305e-19 0.156879)
(1.37027 -9.13912e-20 0.171249)
(1.38455 0 0.184402)
(1.40077 3.09677e-22 0.195451)
(1.41848 -1.54895e-22 0.20419)
(1.4374 -2.19596e-19 0.2105)
(1.45679 2.23577e-19 0.214114)
(1.47641 2.33008e-19 0.215222)
(1.49561 3.23706e-21 0.213833)
(1.5141 -2.45761e-19 0.210213)
(1.53171 -5.09607e-19 0.204628)
(1.54812 -3.11003e-21 0.197331)
(1.56334 -2.63197e-19 0.188593)
(1.57719 2.70623e-19 0.17868)
(1.58973 -5.4494e-19 0.167803)
(1.60091 -1.82636e-21 0.156193)
(1.61081 -2.80953e-19 0.144006)
(1.61947 -4.29959e-19 0.131406)
(1.62695 4.32147e-19 0.118517)
(1.63332 2.9433e-19 0.10543)
(1.63866 -7.45607e-20 0.0922407)
(1.64319 7.24722e-20 0.0785454)
(1.64666 -3.68967e-22 0.0653202)
(1.37947 3.39393e-21 -0.0123257)
(1.37709 3.37408e-21 -0.00802322)
(1.37426 -3.36805e-20 -0.0036117)
(1.37117 1.30571e-20 0.0010671)
(1.36794 -4.67323e-23 0.00612349)
(1.36462 4.14555e-20 0.011642)
(1.36125 0 0.0177623)
(1.35791 0 0.0245833)
(1.35468 -1.46936e-19 0.0322146)
(1.35174 -2.98799e-20 0.0407305)
(1.34926 -6.29125e-20 0.050193)
(1.34753 -6.59075e-20 0.0604447)
(1.34661 6.60163e-20 0.0716726)
(1.34671 -2.78716e-19 0.0841506)
(1.34829 2.17146e-19 0.0978492)
(1.35173 1.53859e-19 0.111929)
(1.35713 -1.5509e-19 0.126195)
(1.36476 -8.01569e-20 0.140472)
(1.37459 0 0.15407)
(1.3867 0 0.166856)
(1.40078 -1.86592e-19 0.17799)
(1.41646 1.64874e-22 0.187228)
(1.43356 -1.88215e-21 0.194377)
(1.45141 4.1603e-19 0.199098)
(1.46978 -6.41185e-19 0.201495)
(1.48805 -4.00028e-21 0.201477)
(1.50589 2.26048e-19 0.199248)
(1.52311 2.34611e-19 0.195011)
(1.53934 4.75571e-19 0.18898)
(1.55454 -2.40695e-19 0.181406)
(1.5685 2.49756e-19 0.172533)
(1.58124 2.54827e-19 0.16258)
(1.5927 -1.02373e-18 0.151771)
(1.6029 0 0.140277)
(1.61188 0 0.128266)
(1.61968 2.65242e-19 0.115875)
(1.62638 -2.70572e-19 0.103206)
(1.63202 0 0.0903617)
(1.63684 0 0.0769722)
(1.64056 -3.4111e-22 0.0639725)
(1.38704 0 -0.0103878)
(1.38497 6.44917e-21 -0.00646034)
(1.38249 1.90493e-20 -0.00244166)
(1.37979 2.54087e-20 0.00180604)
(1.37696 2.57774e-20 0.00637754)
(1.37406 -7.83176e-20 0.011345)
(1.37112 0 0.0168273)
(1.36819 -2.73497e-20 0.0229079)
(1.36535 1.11769e-19 0.0296798)
(1.36274 -2.90041e-20 0.037208)
(1.3605 -3.90779e-22 0.0455484)
(1.35887 1.24256e-19 0.0545823)
(1.35789 1.26766e-19 0.0644758)
(1.35773 -1.33346e-19 0.0754801)
(1.35875 -6.69943e-20 0.0876037)
(1.36133 -7.07667e-20 0.100175)
(1.36557 -7.34936e-20 0.113058)
(1.37175 -1.53285e-19 0.126133)
(1.3799 0 0.138825)
(1.39013 0 0.151021)
(1.40228 0 0.161959)
(1.41608 -1.79658e-19 0.171379)
(1.43139 -1.54017e-21 0.179049)
(1.44767 1.70831e-21 0.184582)
(1.4647 3.45049e-21 0.188009)
(1.48191 -2.0377e-19 0.189156)
(1.49896 6.28044e-19 0.188163)
(1.51562 0 0.185167)
(1.53152 -4.4197e-19 0.180336)
(1.54656 2.24556e-19 0.173891)
(1.56052 6.85404e-19 0.166051)
(1.57336 6.96332e-19 0.157029)
(1.58499 7.13111e-19 0.147041)
(1.59543 -4.76996e-19 0.136265)
(1.60467 0 0.124874)
(1.61275 1.2229e-19 0.11301)
(1.61973 5.03764e-19 0.100788)
(1.62564 -1.27258e-19 0.0883183)
(1.63072 0 0.0752608)
(1.63468 -7.01007e-20 0.0625101)
(1.39406 0 -0.00859418)
(1.39224 3.09178e-20 -0.00499737)
(1.39008 -6.12119e-21 -0.00132326)
(1.38772 0 0.00254867)
(1.38525 -2.46678e-20 0.00670029)
(1.38272 7.54617e-20 0.0111936)
(1.38014 -5.1316e-20 0.0161305)
(1.37759 2.61538e-20 0.0215815)
(1.3751 -8.03475e-20 0.0276259)
(1.3728 1.10594e-19 0.0343201)
(1.3708 -1.13738e-19 0.0417133)
(1.36931 -5.87309e-20 0.0497147)
(1.36835 -6.08553e-20 0.0584702)
(1.36804 1.24534e-19 0.0682057)
(1.3687 -1.94125e-19 0.0789511)
(1.37065 6.78857e-20 0.0901663)
(1.37403 1.39834e-19 0.10176)
(1.37906 -1.45648e-19 0.113657)
(1.38582 1.50029e-19 0.125383)
(1.39448 0 0.136855)
(1.40493 1.6357e-19 0.147393)
(1.41702 -3.32195e-19 0.156745)
(1.43065 0 0.164663)
(1.44539 3.59694e-19 0.170739)
(1.46105 -1.82062e-19 0.174945)
(1.47711 0 0.177046)
(1.49326 -5.8522e-19 0.177116)
(1.50924 1.98538e-19 0.175233)
(1.52467 -4.07433e-19 0.171512)
(1.53943 2.09556e-19 0.166141)
(1.55326 -2.13716e-19 0.159305)
(1.56609 -2.4821e-21 0.151204)
(1.57781 -2.20325e-19 0.142043)
(1.5884 4.44352e-19 0.132001)
(1.59785 6.7811e-19 0.12125)
(1.60616 1.12299e-19 0.109939)
(1.61337 1.1525e-19 0.0981895)
(1.61952 -2.96406e-19 0.0861185)
(1.62484 8.73253e-20 0.0734168)
(1.62901 -3.19195e-20 0.0609377)
(1.40057 2.94619e-21 -0.00692883)
(1.39899 -2.05553e-20 -0.00362499)
(1.3971 1.76503e-20 -0.000254854)
(1.39503 -3.52163e-20 0.00328741)
(1.39288 -3.56961e-20 0.00707288)
(1.39067 -4.78242e-20 0.0111551)
(1.38843 -4.66036e-22 0.0156219)
(1.3862 0 0.0205331)
(1.38403 -5.15562e-20 0.0259566)
(1.38202 5.31557e-20 0.031941)
(1.38026 5.38615e-20 0.0385293)
(1.37892 0 0.0456508)
(1.37802 5.73529e-20 0.053433)
(1.37766 1.20038e-19 0.0620763)
(1.37808 1.21869e-19 0.0716214)
(1.3796 0 0.0816311)
(1.38232 1.00231e-21 0.0920472)
(1.38645 7.20023e-22 0.102825)
(1.39211 -2.84194e-19 0.113583)
(1.39944 2.91648e-19 0.124259)
(1.40845 0 0.134263)
(1.41901 -1.57305e-19 0.143361)
(1.4311 -1.63474e-19 0.151306)
(1.44436 0 0.157692)
(1.45866 -1.72527e-19 0.162448)
(1.47355 -1.7877e-19 0.165294)
(1.48872 1.79103e-19 0.166251)
(1.50392 1.84805e-19 0.165337)
(1.51877 5.68734e-19 0.16262)
(1.53313 5.78737e-19 0.158247)
(1.54672 -7.91589e-19 0.152368)
(1.55945 -2.03611e-19 0.145164)
(1.57117 8.17925e-19 0.136823)
(1.58184 -2.17381e-22 0.127519)
(1.59142 -4.21707e-19 0.11742)
(1.5999 -7.4745e-19 0.10668)
(1.60731 -1.09892e-19 0.0954232)
(1.61366 1.07688e-21 0.0837726)
(1.61918 -2.44565e-19 0.0714481)
(1.62354 -8.82133e-20 0.0592611)
(1.40663 0 -0.00537865)
(1.40526 0 -0.00233564)
(1.4036 -1.11589e-20 0.00076493)
(1.40181 -1.14286e-20 0.0040163)
(1.39993 4.52882e-20 0.00748044)
(1.398 4.63393e-20 0.0112038)
(1.39606 -4.04926e-22 0.0152624)
(1.39412 0 0.0197074)
(1.39224 9.81881e-20 0.0245968)
(1.39049 -1.01197e-19 0.0299727)
(1.38895 5.18791e-20 0.0358723)
(1.38778 -5.39772e-20 0.0422399)
(1.38697 1.65994e-19 0.0491863)
(1.3866 -1.7039e-19 0.0568877)
(1.38689 0 0.0653893)
(1.3881 0 0.0743347)
(1.39033 0 0.0836885)
(1.39378 0 0.0934295)
(1.39855 -1.34956e-19 0.103248)
(1.40479 1.05628e-21 0.113106)
(1.41256 1.25963e-21 0.122497)
(1.42179 1.50589e-21 0.131211)
(1.43248 9.02002e-22 0.139015)
(1.44438 -1.5593e-19 0.145517)
(1.45738 -1.61496e-19 0.150621)
(1.47109 4.976e-19 0.154019)
(1.48524 -8.4665e-19 0.155688)
(1.49959 6.94949e-19 0.155596)
(1.51378 -8.85371e-19 0.153765)
(1.52765 -3.62269e-19 0.150301)
(1.54091 3.70116e-19 0.145316)
(1.55344 -1.83905e-21 0.138971)
(1.56507 -5.75198e-19 0.131429)
(1.57574 -1.95025e-19 0.122856)
(1.58539 0 0.113413)
(1.59399 4.97686e-19 0.103254)
(1.60155 -5.07495e-19 0.0925055)
(1.60807 2.07503e-19 0.0812928)
(1.61375 4.07843e-19 0.0693637)
(1.61827 -3.71083e-22 0.0574877)
(1.41228 0 -0.00393304)
(1.41109 -1.08519e-20 -0.00112325)
(1.40965 4.32802e-20 0.00173711)
(1.40809 1.07313e-20 0.0047304)
(1.40645 0 0.00791089)
(1.40479 -8.88143e-20 0.0113191)
(1.4031 4.50416e-20 0.0150209)
(1.40142 0 0.0190603)
(1.3998 0 0.0234872)
(1.39829 2.22527e-22 0.0283377)
(1.39696 9.96534e-20 0.0336442)
(1.39595 -5.17234e-20 0.0393621)
(1.39525 -1.05156e-19 0.0455875)
(1.39492 -1.09557e-19 0.0524744)
(1.39513 0 0.0600685)
(1.39614 -1.17476e-19 0.068077)
(1.39801 1.19532e-19 0.0764806)
(1.40092 6.75016e-22 0.0852736)
(1.40498 -9.64564e-22 0.0942068)