/*--------------------------------*- C++ -*----------------------------------*\
| =========                 |                                                 |
| \\      /  F ield         | OpenFOAM: The Open Source CFD Toolbox           |
|  \\    /   O peration     | Version:  5.x                                   |
|   \\  /    A nd           | Web:      www.OpenFOAM.org                      |
|    \\/     M anipulation  |                                                 |
\*---------------------------------------------------------------------------*/
FoamFile
{
    version     2.0;
    format      ascii;
    class       volScalarField;
    location    "500";
    object      nut;
}
// * * * * * * * * * * * * * * * * * * * * * * * * * * * * * * * * * * * * * //

dimensions      [0 2 -1 0 0 0 0];

internalField   nonuniform List<scalar> 
26000
(
0.000379758
0.000299916
0.000229583
0.00017945
0.000145579
0.000131588
0.000125781
0.00012011
0.000115744
0.00011198
0.000109225
0.00010807
0.00010512
0.000105169
0.000106166
0.000106902
0.000107972
0.000109744
0.000112109
0.000115123
0.000118577
0.000122242
0.000126259
0.000130426
0.000134312
0.000137711
0.000140681
0.000143482
0.000146175
0.000148844
0.000151396
0.00015364
0.000155505
0.000156943
0.000157958
0.000158507
0.000158543
0.000158125
0.000156491
0.000154446
0.00152766
0.00131414
0.0010621
0.000868805
0.000723987
0.000615447
0.000533166
0.000470872
0.000422223
0.000385285
0.000356857
0.000335796
0.00031688
0.000303232
0.000293935
0.000285312
0.000277484
0.000272787
0.000269716
0.000269318
0.000270207
0.00027146
0.000274271
0.000277459
0.000278722
0.000277668
0.000275156
0.000272481
0.000269845
0.00026757
0.000265114
0.000261466
0.000256917
0.00025139
0.000245196
0.000238217
0.000230667
0.000222565
0.000213419
0.000205288
0.0027053
0.00242458
0.00209569
0.00179687
0.00153988
0.00133412
0.00117051
0.00104227
0.000939823
0.000859743
0.000796761
0.000748745
0.000707187
0.000671452
0.000638851
0.000613865
0.000592864
0.000574801
0.000560891
0.000549848
0.000542861
0.000536458
0.000531007
0.0005272
0.000525111
0.00052478
0.000524965
0.000526477
0.000528472
0.000531627
0.000532953
0.000530388
0.000526146
0.000519705
0.000511363
0.000500786
0.000488337
0.000474288
0.000456513
0.000440115
0.00391474
0.00361083
0.0032293
0.00283809
0.00249319
0.00220036
0.00195401
0.00175049
0.00158151
0.00144469
0.00133423
0.00124907
0.00117611
0.00111147
0.00105937
0.0010205
0.000987897
0.000960796
0.000939945
0.000923782
0.000913203
0.000900808
0.000888759
0.000879307
0.000871672
0.000866085
0.000860616
0.000856458
0.000852898
0.000850125
0.000848155
0.000846203
0.000844822
0.000839095
0.000829603
0.000815902
0.000798562
0.000777958
0.000751387
0.00072586
0.00514443
0.0048317
0.00441773
0.00398141
0.00356845
0.00319578
0.00286898
0.00258907
0.0023512
0.00215453
0.00199277
0.00186582
0.00175746
0.0016615
0.00158199
0.00152138
0.00146985
0.00142554
0.00138938
0.00135938
0.00133729
0.00131881
0.00130383
0.00129292
0.00128454
0.00127669
0.00126773
0.00126003
0.00125194
0.00124364
0.00123558
0.00122704
0.00121894
0.00120997
0.0011996
0.0011829
0.00116037
0.00113253
0.00109602
0.00105991
0.00639283
0.00607844
0.00564897
0.00518535
0.00472428
0.00429494
0.00390305
0.00355245
0.00324607
0.00298646
0.00276847
0.00259382
0.00244372
0.00230892
0.00219247
0.00210143
0.00202816
0.00196684
0.00191648
0.00187422
0.00184146
0.00181227
0.00178767
0.00176852
0.00175197
0.00173986
0.00172914
0.00172109
0.00171016
0.0016981
0.00168506
0.00167021
0.00165488
0.00163794
0.00162037
0.00159962
0.00157146
0.00153574
0.00148832
0.00144024
0.00765916
0.00734657
0.00691113
0.00643118
0.00594179
0.00546895
0.00502247
0.00461452
0.00424688
0.00392613
0.00365009
0.00342399
0.0032273
0.00304935
0.00289589
0.0027735
0.00267376
0.00259003
0.00251962
0.00245876
0.00241114
0.0023712
0.00233821
0.00231223
0.00228738
0.00226782
0.00224972
0.00223443
0.00222021
0.00220641
0.00218955
0.0021693
0.00214722
0.00212199
0.00209505
0.00206526
0.00203016
0.00198549
0.001926
0.00186468
0.00894328
0.0086345
0.0081988
0.00771087
0.00720575
0.00670379
0.00621855
0.00576175
0.0053399
0.00496292
0.00463133
0.00435425
0.00411018
0.00388723
0.00369229
0.00353424
0.00340223
0.00329077
0.0031989
0.00311907
0.00305576
0.00300076
0.00295416
0.00291647
0.00288348
0.00285821
0.00283286
0.00280999
0.002788
0.00276656
0.0027455
0.0027208
0.00269254
0.00265915
0.00262242
0.00258137
0.00253653
0.00248119
0.00240825
0.00233228
0.0102451
0.00994143
0.00950902
0.00901909
0.00850598
0.00798643
0.00747283
0.00697985
0.00651451
0.00608918
0.00570603
0.00537969
0.00508817
0.00481883
0.00457874
0.00438147
0.00421617
0.00407481
0.00395792
0.00385441
0.00376993
0.00369899
0.00363876
0.00358875
0.00354356
0.00350686
0.00347384
0.00344478
0.00341513
0.00338504
0.0033553
0.00332353
0.00328908
0.00324764
0.00320087
0.00314778
0.00308979
0.00302264
0.00293489
0.0028427
0.0115647
0.0112669
0.01084
0.0103521
0.00983556
0.0093076
0.00877571
0.0082565
0.0077555
0.00728891
0.00686206
0.00649078
0.00615368
0.00583742
0.00555273
0.00531579
0.00511555
0.00494052
0.00479377
0.00466535
0.00455915
0.00446918
0.00439109
0.00432604
0.00426851
0.00422026
0.00417612
0.00413642
0.00409894
0.00406075
0.00402171
0.00397989
0.0039365
0.00388668
0.00382946
0.00376373
0.00369127
0.00361033
0.00350595
0.0033959
0.0129017
0.0126104
0.0121908
0.0117078
0.0111924
0.0106613
0.0101189
0.00958098
0.00905501
0.00855609
0.00809098
0.00767952
0.00730077
0.00694067
0.0066118
0.00633447
0.00609577
0.00588648
0.00570923
0.00555344
0.00542218
0.00531012
0.00521309
0.00513146
0.0050582
0.00499606
0.00494062
0.00488932
0.00484041
0.00479218
0.00474383
0.00469138
0.00463647
0.00457631
0.00450781
0.00442876
0.0043409
0.00424431
0.00412149
0.00399194
0.0142561
0.0139717
0.0135604
0.0130845
0.0125734
0.0120432
0.0114962
0.0109469
0.0104034
0.00987874
0.00938385
0.00893849
0.00852286
0.00812239
0.00775091
0.00743274
0.00715681
0.00691247
0.00670301
0.00651621
0.00635887
0.00622379
0.00610473
0.0060037
0.00591424
0.00583615
0.00576553
0.00570251
0.00564151
0.0055807
0.00552081
0.00545757
0.00539025
0.00531629
0.00523588
0.00514274
0.00503856
0.0049245
0.00478159
0.00463099
0.0156277
0.0153505
0.0149483
0.0144808
0.013976
0.0134496
0.0129027
0.0123478
0.0117931
0.0112507
0.0107322
0.0102579
0.00981012
0.00937387
0.00896378
0.0086075
0.00829565
0.00801574
0.0077727
0.0075545
0.00736934
0.00720767
0.00706573
0.00694434
0.00683479
0.00674002
0.00665372
0.00657465
0.00650127
0.00642736
0.00635382
0.00627811
0.00619775
0.006109
0.00601418
0.00590577
0.00578424
0.00565079
0.00548639
0.00531332
0.0170162
0.0167465
0.0163539
0.0158959
0.0153991
0.0148779
0.0143349
0.0137787
0.0132169
0.0126638
0.0121275
0.0116318
0.0111577
0.0106906
0.0102458
0.00985379
0.00950573
0.00919164
0.00891681
0.00866648
0.00845145
0.00826289
0.00809636
0.00795199
0.00782234
0.00770861
0.0076043
0.00750882
0.00741877
0.00733139
0.00724356
0.00715224
0.00705859
0.00695441
0.00684234
0.00671801
0.0065781
0.0064229
0.00623617
0.00603926
0.0184213
0.0181594
0.0177769
0.0173293
0.0168419
0.0163284
0.015791
0.0152372
0.0146731
0.0141135
0.0135653
0.013053
0.012557
0.0120636
0.0115887
0.011165
0.0107842
0.0104376
0.0101296
0.00984809
0.0096044
0.00938797
0.00919499
0.00902727
0.00887436
0.00874136
0.008618
0.00850382
0.00839684
0.00829223
0.00818967
0.00808233
0.00797289
0.00785235
0.00772227
0.00758007
0.00742033
0.00724272
0.00703163
0.00680917
0.0198429
0.0195887
0.0192167
0.0187802
0.0183032
0.0177989
0.0172691
0.0167202
0.0161573
0.0155943
0.0150398
0.0145151
0.0140036
0.0134895
0.0129892
0.0125374
0.0121267
0.0117482
0.0114094
0.0110978
0.0108236
0.0105798
0.010361
0.0101678
0.0099919
0.0098362
0.00969367
0.00956018
0.00943419
0.00931216
0.00919169
0.0090679
0.00893978
0.00880255
0.00865374
0.00849194
0.008311
0.00810996
0.00787298
0.00762332
0.0212806
0.0210344
0.020673
0.0202479
0.0197821
0.0192882
0.0187675
0.0182256
0.017667
0.0171046
0.0165472
0.0160149
0.0154919
0.0149607
0.0144393
0.0139637
0.0135269
0.0131202
0.012753
0.0124111
0.0121082
0.0118373
0.0115913
0.0113734
0.0111723
0.0109944
0.0108294
0.0106766
0.0105311
0.0103903
0.010251
0.0101088
0.00996158
0.00980515
0.00963655
0.00945334
0.00925011
0.00902462
0.00876033
0.00848193
0.0227343
0.022496
0.0221454
0.021732
0.021278
0.0207952
0.0202847
0.0197515
0.0191995
0.0186406
0.0180834
0.0175473
0.017017
0.0164741
0.0159365
0.0154412
0.0149817
0.01455
0.0141553
0.0137855
0.0134557
0.013157
0.012885
0.0126408
0.0124156
0.0122132
0.0120264
0.0118514
0.0116863
0.0115247
0.0113667
0.0112037
0.0110373
0.0108594
0.0106706
0.0104637
0.0102377
0.00998675
0.00969378
0.00938513
0.0242037
0.0239734
0.0236337
0.0232323
0.0227904
0.0223193
0.0218199
0.0212966
0.0207528
0.0201995
0.0196452
0.0191085
0.0185733
0.0180237
0.0174744
0.0169634
0.0164842
0.0160317
0.0156134
0.015218
0.0148615
0.0145372
0.0142383
0.0139694
0.0137184
0.0134928
0.0132823
0.0130856
0.0128986
0.0127166
0.0125382
0.0123541
0.0121667
0.0119669
0.0117561
0.011525
0.0112743
0.0109964
0.0106734
0.010333
0.0256888
0.0254665
0.0251377
0.0247484
0.0243189
0.02386
0.0233724
0.0228601
0.0223257
0.0217798
0.0212298
0.020696
0.02016
0.0196063
0.0190477
0.0185246
0.0180312
0.0175595
0.0171207
0.0167027
0.016323
0.0159733
0.0156499
0.0153553
0.0150804
0.0148301
0.0145969
0.0143771
0.0141685
0.0139647
0.0137635
0.0135587
0.0133483
0.0131266
0.0128925
0.0126363
0.0123596
0.0120534
0.0116989
0.0113255
0.0271896
0.0269752
0.0266573
0.0262801
0.0258633
0.0254169
0.0249416
0.024441
0.0239174
0.0233805
0.0228373
0.0223079
0.0217738
0.0212192
0.0206558
0.0201242
0.0196192
0.0191322
0.0186761
0.0182381
0.0178356
0.0174635
0.0171154
0.0167976
0.0164978
0.0162246
0.0159676
0.0157255
0.0154944
0.0152669
0.0150438
0.0148165
0.0145831
0.014338
0.0140788
0.0137969
0.013493
0.0131573
0.0127701
0.0123622
0.0287059
0.0284995
0.0281925
0.0278275
0.0274234
0.0269898
0.0265271
0.0260388
0.0255269
0.0250003
0.0244656
0.0239422
0.0234118
0.0228587
0.0222941
0.0217573
0.0212434
0.0207437
0.0202738
0.0198191
0.0193975
0.0190034
0.0186335
0.018292
0.0179699
0.0176729
0.0173937
0.0171286
0.0168735
0.0166236
0.0163774
0.0161258
0.0158697
0.0156001
0.0153137
0.015006
0.0146742
0.0143078
0.0138868
0.0134431
0.030238
0.0300394
0.0297432
0.0293905
0.0289993
0.0285787
0.0281289
0.0276532
0.0271535
0.0266382
0.0261134
0.0255975
0.0250725
0.024522
0.0239594
0.0234202
0.0229
0.0223923
0.0219096
0.0214406
0.0210037
0.0205913
0.0201999
0.0198376
0.0194927
0.0191743
0.0188725
0.0185834
0.0183059
0.0180327
0.0177621
0.0174874
0.0172073
0.0169118
0.0165986
0.0162635
0.0159025
0.0155045
0.0150484
0.0145679
0.031786
0.0315952
0.0313097
0.0309691
0.0305909
0.0301841
0.0297468
0.0292839
0.028797
0.0282937
0.0277797
0.0272728
0.0267551
0.02621
0.0256506
0.0251107
0.0245886
0.0240755
0.0235839
0.0231026
0.0226501
0.0222226
0.0218132
0.0214301
0.0210652
0.0207254
0.0204005
0.0200897
0.0197894
0.0194919
0.0191984
0.0188999
0.0185945
0.0182713
0.0179318
0.0175686
0.0171774
0.0167466
0.0162545
0.015736
0.0333499
0.0331668
0.0328919
0.0325633
0.0321978
0.0318041
0.0313801
0.0309306
0.0304568
0.0299661
0.0294638
0.028967
0.028458
0.0279204
0.0273664
0.0268287
0.0263063
0.0257901
0.0252921
0.0248015
0.0243365
0.0238935
0.0234692
0.0230685
0.0226841
0.0223227
0.0219775
0.0216448
0.0213209
0.0210012
0.0206843
0.0203612
0.0200298
0.0196797
0.0193127
0.0189204
0.018498
0.0180335
0.0175046
0.0169471
0.0349302
0.0347547
0.0344903
0.0341736
0.0338207
0.0334398
0.0330291
0.0325931
0.0321329
0.0316554
0.0311655
0.0306795
0.0301803
0.0296516
0.0291048
0.0285715
0.0280508
0.0275333
0.0270307
0.0265332
0.0260587
0.0256037
0.0251642
0.0247488
0.0243454
0.0239658
0.0236004
0.0232455
0.0229008
0.0225585
0.0222175
0.0218694
0.021511
0.0211349
0.0207399
0.0203179
0.0198634
0.0193645
0.0187979
0.0182006
0.036527
0.0363591
0.036105
0.0358002
0.0354603
0.0350917
0.0346942
0.0342718
0.0338254
0.0333614
0.0328844
0.0324099
0.0319214
0.0314027
0.0308646
0.0303375
0.0298202
0.0293034
0.0287971
0.0282944
0.0278127
0.0273493
0.0268983
0.0264687
0.0260492
0.0256516
0.0252661
0.0248921
0.0245264
0.0241613
0.0237955
0.0234225
0.0230391
0.0226358
0.0222122
0.0217597
0.0212727
0.0207387
0.0201338
0.0194959
0.0381407
0.0379802
0.0377362
0.0374429
0.0371153
0.0367594
0.0363752
0.0359666
0.0355342
0.0350843
0.0346207
0.0341582
0.033681
0.0331732
0.0326448
0.0321253
0.0316134
0.0310994
0.030593
0.0300876
0.0296002
0.0291279
0.0286679
0.0282246
0.0277915
0.0273768
0.0269746
0.0265817
0.0261951
0.0258071
0.0254194
0.025022
0.0246127
0.0241807
0.023728
0.0232448
0.0227246
0.022155
0.0215114
0.0208323
0.0397714
0.0396184
0.0393846
0.039103
0.0387868
0.0384434
0.0380724
0.0376776
0.0372594
0.0368239
0.0363749
0.0359243
0.0354589
0.0349626
0.0344449
0.0339341
0.0334289
0.0329196
0.0324152
0.0319095
0.0314188
0.0309401
0.0304715
0.0300176
0.0295703
0.0291418
0.0287233
0.0283117
0.0279043
0.0274965
0.0270869
0.0266656
0.0262299
0.0257672
0.0252857
0.0247716
0.0242181
0.0236124
0.0229297
0.0222091
0.0414194
0.0412737
0.0410501
0.0407791
0.0404746
0.0401437
0.0397859
0.0394049
0.0390009
0.0385796
0.0381447
0.0377073
0.0372545
0.0367708
0.0362644
0.0357631
0.0352657
0.0347625
0.0342619
0.0337577
0.0332657
0.0327827
0.0323061
0.0318445
0.0313859
0.0309439
0.0305093
0.0300793
0.0296544
0.0292271
0.028796
0.0283509
0.027889
0.0273966
0.0268841
0.0263389
0.0257519
0.0251096
0.0243879
0.0236253
0.0430847
0.0429458
0.0427316
0.0424715
0.0421788
0.0418604
0.041516
0.0411487
0.0407591
0.0403521
0.0399312
0.0395071
0.0390677
0.038598
0.038103
0.037612
0.0371232
0.0366271
0.0361317
0.0356306
0.0351391
0.0346539
0.0341722
0.0337034
0.0332351
0.0327805
0.03233
0.031885
0.0314431
0.0309967
0.0305444
0.0300759
0.0295881
0.0290664
0.0285208
0.0279453
0.0273249
0.0266459
0.0258849
0.0250803
0.0447676
0.0446359
0.0444304
0.0441807
0.0438997
0.0435938
0.0432627
0.0429094
0.0425342
0.0421423
0.0417347
0.0413239
0.0408976
0.0404414
0.0399595
0.03948
0.0390006
0.0385127
0.0380237
0.0375269
0.0370373
0.0365516
0.0360668
0.0355921
0.0351152
0.0346493
0.0341859
0.0337263
0.0332679
0.0328029
0.0323299
0.0318385
0.0313251
0.0307748
0.0301973
0.0295901
0.0289358
0.0282201
0.0274198
0.0265729
0.0464676
0.0463424
0.046146
0.0459069
0.0456375
0.0453441
0.0450262
0.0446867
0.0443258
0.0439481
0.0435547
0.0431575
0.0427447
0.042302
0.0418337
0.0413672
0.0408974
0.0404184
0.0399371
0.0394457
0.0389592
0.0384742
0.0379877
0.0375086
0.0370244
0.0365472
0.0360735
0.0356006
0.0351265
0.0346436
0.0341504
0.0336365
0.0330981
0.0325197
0.0319109
0.0312715
0.0305831
0.0298308
0.0289914
0.0281023
0.048185
0.0480661
0.0478786
0.04765
0.0473923
0.0471113
0.0468067
0.0464812
0.0461349
0.0457706
0.0453912
0.0450079
0.0446095
0.0441796
0.0437246
0.0432705
0.0428118
0.042343
0.0418716
0.0413862
0.0409034
0.0404204
0.0399338
0.039451
0.0389612
0.0384755
0.0379913
0.0375057
0.0370166
0.0365164
0.0360037
0.035468
0.0349051
0.0342993
0.0336597
0.0329873
0.0322653
0.0314768
0.0305985
0.0296672
0.0499197
0.049807
0.0496283
0.0494101
0.0491639
0.0488953
0.048604
0.0482926
0.0479595
0.0476091
0.0472437
0.0468743
0.0464895
0.0460735
0.0456324
0.0451908
0.0447436
0.044285
0.0438229
0.0433468
0.0428687
0.0423888
0.0419038
0.0414177
0.0409233
0.0404311
0.0399372
0.0394395
0.0389361
0.0384194
0.0378878
0.0373309
0.0367442
0.0361116
0.0354417
0.034735
0.0339807
0.0331567
0.0322399
0.0312667
0.0516715
0.0515648
0.0513948
0.0511868
0.050952
0.0506958
0.0504178
0.0501189
0.0497994
0.0494631
0.0491123
0.0487572
0.0483853
0.0479833
0.0475572
0.0471278
0.046693
0.0462438
0.0457907
0.0453232
0.0448532
0.0443776
0.043893
0.0434056
0.0429085
0.0424126
0.041909
0.0413999
0.0408829
0.0403504
0.0398007
0.0392233
0.0386135
0.0379548
0.0372554
0.0365158
0.0357285
0.034869
0.0339142
0.0328993
0.0534396
0.0533389
0.0531774
0.0529797
0.0527562
0.0525123
0.0522462
0.0519601
0.0516541
0.051332
0.0509962
0.0506542
0.0502957
0.0499078
0.0494958
0.0490795
0.0486567
0.0482185
0.0477744
0.0473152
0.0468521
0.0463817
0.0458999
0.0454131
0.0449146
0.0444144
0.0439042
0.0433847
0.0428549
0.0423075
0.0417404
0.0411433
0.0405111
0.0398271
0.039099
0.0383274
0.0375066
0.0366123
0.0356199
0.0345639
0.0552231
0.0551284
0.0549755
0.0547878
0.0545757
0.0543428
0.0540888
0.0538157
0.0535233
0.053215
0.0528931
0.0525648
0.0522203
0.0518474
0.0514488
0.0510465
0.050635
0.0502091
0.049774
0.0493228
0.0488667
0.0484018
0.0479242
0.047439
0.046941
0.0464361
0.0459214
0.0453918
0.0448501
0.0442885
0.043705
0.0430889
0.042435
0.0417264
0.0409703
0.0401675
0.0393129
0.0383849
0.0373558
0.0362591
0.0570204
0.0569319
0.0567882
0.0566104
0.0564082
0.0561865
0.0559448
0.055685
0.055407
0.0551124
0.0548034
0.0544888
0.0541586
0.0537989
0.0534142
0.053025
0.0526259
0.0522117
0.0517882
0.0513453
0.0508964
0.0504375
0.0499653
0.0494821
0.0489825
0.0484747
0.0479555
0.0474189
0.0468666
0.0462918
0.0456925
0.0450583
0.0443833
0.0436507
0.0428675
0.0420344
0.0411476
0.0401857
0.0391201
0.0379833
0.0588303
0.0587476
0.0586121
0.058444
0.0582526
0.0580424
0.0578132
0.0575667
0.0573014
0.0570204
0.0567254
0.0564249
0.0561075
0.0557619
0.0553922
0.0550155
0.0546295
0.054226
0.0538129
0.053381
0.0529404
0.0524875
0.0520181
0.051537
0.051038
0.050529
0.050006
0.049465
0.0489026
0.0483152
0.0477011
0.0470495
0.0463542
0.045598
0.0447882
0.0439259
0.043008
0.0420126
0.0409112
0.0397351
0.0606521
0.0605749
0.0604475
0.060289
0.0601084
0.0599098
0.059693
0.0594585
0.0592061
0.0589387
0.058658
0.0583702
0.0580662
0.0577353
0.0573791
0.0570163
0.0566421
0.0562511
0.0558476
0.0554253
0.0549927
0.0545465
0.0540818
0.0536035
0.0531065
0.0525985
0.0520714
0.0515249
0.0509561
0.0503568
0.0497289
0.0490608
0.0483456
0.047566
0.0467302
0.0458395
0.0448914
0.0438634
0.0427272
0.0415127
0.0624844
0.0624126
0.0622931
0.0621444
0.061975
0.0617875
0.0615819
0.0613596
0.0611201
0.0608666
0.0605988
0.0603239
0.0600338
0.0597158
0.0593738
0.0590233
0.0586625
0.0582828
0.0578912
0.057479
0.0570538
0.0566155
0.0561562
0.0556805
0.0551868
0.0546782
0.05415
0.0535975
0.0530213
0.052414
0.0517739
0.0510901
0.0503556
0.0495518
0.0486907
0.0477731
0.0467954
0.0457359
0.0445662
0.0433144
0.0643254
0.0642587
0.064147
0.064008
0.0638484
0.063672
0.0634782
0.0632689
0.0630422
0.0628012
0.062547
0.062285
0.062007
0.0617027
0.0613732
0.0610352
0.0606868
0.0603203
0.0599392
0.0595373
0.0591218
0.0586893
0.0582354
0.0577653
0.0572738
0.0567669
0.0562365
0.0556812
0.0550974
0.0544809
0.053829
0.0531301
0.0523769
0.0515516
0.050667
0.0497245
0.0487172
0.047628
0.0464263
0.0451385
0.0661729
0.066111
0.0660065
0.0658766
0.0657274
0.0655627
0.0653805
0.0651825
0.0649682
0.0647403
0.0644983
0.064249
0.0639846
0.0636929
0.0633767
0.0630523
0.0627152
0.0623605
0.0619915
0.0616003
0.0611935
0.0607679
0.0603187
0.0598536
0.0593666
0.0588597
0.0583297
0.0577705
0.0571828
0.0565572
0.055894
0.0551806
0.0544082
0.0535629
0.0526563
0.0516896
0.0506534
0.0495376
0.0483057
0.0469832
0.0680248
0.0679674
0.06787
0.0677488
0.0676101
0.0674557
0.067285
0.0670996
0.0668976
0.0666814
0.0664519
0.0662159
0.0659637
0.0656861
0.0653836
0.0650711
0.0647469
0.0644035
0.0640439
0.0636633
0.063264
0.0628456
0.0624047
0.0619453
0.0614611
0.0609556
0.0604253
0.0598643
0.0592726
0.0586413
0.0579681
0.0572405
0.0564468
0.0555833
0.0546562
0.053667
0.0526054
0.0514639
0.0502027
0.0488468
0.0698792
0.069826
0.0697352
0.0696223
0.0694933
0.0693503
0.0691909
0.0690165
0.0688266
0.0686236
0.0684068
0.0681823
0.0679429
0.0676778
0.0673896
0.0670901
0.0667777
0.0664447
0.066096
0.0657237
0.0653336
0.0649221
0.0644887
0.0640356
0.0635573
0.0630549
0.0625236
0.0619625
0.0613669
0.0607276
0.0600446
0.0593038
0.0584925
0.0576109
0.0566646
0.0556544
0.0545697
0.0534056
0.0521153
0.0507272
0.0717345
0.0716853
0.0716005
0.0714952
0.0713751
0.0712422
0.0710949
0.0709324
0.0707544
0.0705629
0.0703592
0.0701468
0.0699188
0.069667
0.069391
0.069105
0.0688037
0.0684837
0.0681443
0.0677808
0.0673985
0.0669966
0.0665718
0.0661252
0.0656503
0.0651521
0.0646223
0.06406
0.0634595
0.0628153
0.0621234
0.0613699
0.0605414
0.0596429
0.0586789
0.0576495
0.0565436
0.0553568
0.0540405
0.0526223
0.0735894
0.0735438
0.0734645
0.073366
0.0732538
0.07313
0.0729932
0.0728429
0.0726771
0.0724977
0.0723055
0.072106
0.0718902
0.0716507
0.0713873
0.0711134
0.070824
0.0705126
0.0701838
0.0698293
0.0694572
0.0690636
0.0686487
0.0682094
0.0677393
0.0672429
0.0667157
0.0661518
0.0655494
0.064899
0.064198
0.0634316
0.0625894
0.0616764
0.0606966
0.0596498
0.0585249
0.0573166
0.0559764
0.0545302
0.0754427
0.0754002
0.0753259
0.0752335
0.0751283
0.0750125
0.0748848
0.0747449
0.0745908
0.0744244
0.0742445
0.0740568
0.0738526
0.0736243
0.0733737
0.0731111
0.0728313
0.0725311
0.0722119
0.0718687
0.0715059
0.0711229
0.0707164
0.070284
0.0698195
0.069327
0.0688004
0.0682374
0.0676322
0.0669787
0.0662691
0.0654874
0.0646342
0.0637089
0.0627153
0.0616533
0.0605117
0.0592835
0.0579211
0.056449
0.0772929
0.0772532
0.0771834
0.0770965
0.0769976
0.0768889
0.0767692
0.0766387
0.0764958
0.0763408
0.0761724
0.0759954
0.0758036
0.075588
0.0753481
0.075096
0.0748266
0.0745364
0.0742289
0.073896
0.0735448
0.0731712
0.0727711
0.072345
0.0718864
0.0713998
0.0708764
0.0703128
0.0697074
0.0690498
0.0683309
0.067538
0.0666743
0.0657384
0.064733
0.0636579
0.0625026
0.0612555
0.0598729
0.0583769
0.0791387
0.0791014
0.0790356
0.0789536
0.0788604
0.0787578
0.078645
0.0785222
0.0783881
0.0782431
0.0780866
0.0779213
0.0777398
0.0775351
0.0773064
0.0770643
0.0768061
0.0765284
0.076232
0.0759115
0.0755707
0.0752062
0.074814
0.0743947
0.0739418
0.0734582
0.0729395
0.0723773
0.0717706
0.0711075
0.0703823
0.0695796
0.0687073
0.0677627
0.0667476
0.0656612
0.0644932
0.0632301
0.0618297
0.0603121
0.0809784
0.0809433
0.0808812
0.0808036
0.0807153
0.0806182
0.0805115
0.0803952
0.0802684
0.0801315
0.0799839
0.0798284
0.0796578
0.0794634
0.0792464
0.079017
0.0787709
0.0785044
0.0782215
0.077912
0.0775798
0.0772241
0.0768402
0.0764281
0.0759813
0.075502
0.0749863
0.074426
0.0738171
0.0731518
0.072417
0.0716091
0.0707309
0.0697798
0.0687571
0.0676615
0.0664824
0.0652057
0.0637898
0.062253
0.0828103
0.0827772
0.0827184
0.082645
0.0825612
0.0824691
0.0823677
0.0822572
0.0821367
0.0820065
0.0818664
0.081719
0.0815577
0.0813749
0.0811696
0.0809512
0.0807178
0.0804636
0.0801899
0.0798889
0.0795673
0.079221
0.0788456
0.0784411
0.0780008
0.0775263
0.0770123
0.0764554
0.0758471
0.0751791
0.0744377
0.0736253
0.0727433
0.071788
0.07076
0.0696573
0.068469
0.0671807
0.0657515
0.0641977
0.0846329
0.0846015
0.0845458
0.0844762
0.0843967
0.084309
0.0842125
0.0841072
0.0839922
0.083868
0.0837342
0.0835935
0.0834399
0.0832664
0.083073
0.0828667
0.0826441
0.0823992
0.0821351
0.0818436
0.0815315
0.0811942
0.0808274
0.0804304
0.079997
0.0795282
0.0790181
0.0784622
0.0778561
0.0771843
0.0764404
0.0756265
0.074743
0.0737859
0.0727548
0.0716471
0.0704514
0.0691536
0.0677133
0.0661448
0.0864442
0.0864145
0.0863617
0.0862956
0.08622
0.0861366
0.0860446
0.085944
0.0858341
0.0857152
0.0855869
0.0854519
0.0853046
0.0851383
0.0849531
0.0847557
0.0845424
0.0843083
0.0840541
0.0837726
0.0834699
0.0831415
0.0827829
0.0823934
0.0819667
0.0815046
0.0809997
0.0804472
0.0798422
0.0791665
0.078424
0.0776115
0.0767289
0.0757721
0.0747403
0.0736294
0.0724281
0.0711227
0.0696734
0.0680927
0.0882425
0.0882144
0.0881643
0.0881016
0.0880297
0.0879503
0.0878624
0.0877663
0.087661
0.087547
0.0874238
0.0872938
0.0871518
0.0869916
0.0868132
0.0866227
0.0864167
0.0861908
0.0859453
0.0856743
0.0853807
0.0850605
0.0847099
0.0843278
0.083907
0.0834526
0.082954
0.0824061
0.0818024
0.0811284
0.0803888
0.0795795
0.0786999
0.0777456
0.0767157
0.0756032
0.0743974
0.0730864
0.0716305
0.0700398
0.0900261
0.0899994
0.089952
0.0898924
0.0898241
0.0897484
0.0896645
0.0895726
0.0894717
0.0893622
0.0892437
0.0891184
0.0889812
0.0888264
0.0886539
0.0884694
0.0882697
0.0880504
0.0878118
0.0875485
0.0872625
0.0869499
0.0866067
0.0862322
0.0858202
0.0853713
0.0848787
0.0843366
0.0837379
0.0830689
0.0823344
0.0815302
0.0806552
0.0797053
0.0786808
0.0775669
0.0763571
0.0750433
0.0735831
0.0719846
0.0917932
0.0917679
0.0917229
0.0916663
0.0916014
0.0915293
0.0914492
0.0913613
0.0912646
0.0911594
0.0910454
0.0909244
0.0907918
0.090642
0.0904749
0.0902959
0.0901018
0.0898884
0.089656
0.0893993
0.0891199
0.088814
0.0884778
0.0881104
0.0877058
0.0872637
0.0867778
0.0862424
0.0856503
0.0849881
0.0842603
0.0834627
0.0825939
0.0816495
0.08063
0.0795182
0.0783079
0.0769925
0.0755298
0.0739257
0.0935421
0.093518
0.0934754
0.0934217
0.09336
0.0932913
0.0932149
0.0931308
0.0930382
0.0929371
0.0928273
0.0927105
0.0925823
0.0924373
0.0922754
0.0921015
0.0919127
0.0917049
0.0914782
0.0912275
0.0909543
0.0906548
0.0903253
0.0899646
0.0895671
0.089132
0.0886532
0.0881251
0.0875404
0.0868862
0.0861664
0.0853766
0.0845152
0.0835776
0.0825637
0.0814559
0.0802477
0.0789325
0.077469
0.0758614
0.0952711
0.0952482
0.0952078
0.0951569
0.0950983
0.0950329
0.09496
0.0948796
0.0947908
0.0946938
0.0945881
0.0944754
0.0943513
0.094211
0.0940541
0.0938853
0.0937015
0.093499
0.0932778
0.093033
0.0927658
0.0924725
0.0921494
0.0917954
0.0914049
0.090977
0.0905056
0.0899852
0.0894086
0.0887631
0.0880521
0.0872711
0.0864182
0.0854885
0.0844813
0.0833791
0.0821748
0.0808616
0.0793992
0.0777902
0.0969785
0.0969567
0.0969185
0.0968703
0.0968147
0.0967525
0.096683
0.0966061
0.0965211
0.096428
0.0963263
0.0962175
0.0960975
0.0959617
0.0958097
0.0956458
0.095467
0.0952698
0.095054
0.0948149
0.0945536
0.0942664
0.0939499
0.0936026
0.0932192
0.0927985
0.0923347
0.0918224
0.0912543
0.0906181
0.0899167
0.0891454
0.088302
0.0873813
0.0863821
0.0852867
0.0840877
0.0827782
0.0813188
0.0797105
0.0986628
0.0986422
0.098606
0.0985604
0.0985076
0.0984485
0.0983823
0.0983089
0.0982275
0.0981382
0.0980403
0.0979354
0.0978195
0.0976881
0.0975409
0.0973818
0.097208
0.097016
0.0968055
0.0965722
0.0963168
0.0960358
0.0957257
0.0953852
0.095009
0.0945958
0.0941399
0.0936359
0.0930768
0.0924505
0.0917592
0.0909983
0.0901654
0.089255
0.0882647
0.0871772
0.0859848
0.0846806
0.083226
0.0816205
0.100323
0.100303
0.100269
0.100226
0.100176
0.10012
0.100057
0.0999865
0.0999087
0.099823
0.0997289
0.0996278
0.0995158
0.0993888
0.0992463
0.099092
0.098923
0.0987362
0.0985311
0.0983035
0.098054
0.0977792
0.0974758
0.0971422
0.0967733
0.0963678
0.09592
0.0954248
0.0948751
0.094259
0.0935785
0.0928288
0.0920072
0.0911088
0.0901281
0.0890492
0.0878647
0.0865673
0.0851192
0.0835186
0.101957
0.101938
0.101906
0.101865
0.101818
0.101764
0.101704
0.101638
0.101563
0.101481
0.101391
0.101293
0.101185
0.101062
0.100925
0.100775
0.100611
0.100429
0.10023
0.100008
0.0997642
0.0994957
0.0991989
0.0988723
0.098511
0.0981134
0.097674
0.0971878
0.0966479
0.0960427
0.0953735
0.0946354
0.093826
0.0929421
0.0919704
0.0909008
0.0897255
0.0884364
0.0869968
0.0854031
0.103564
0.103546
0.103516
0.103477
0.103432
0.103382
0.103325
0.103261
0.10319
0.103111
0.103025
0.102931
0.102826
0.102708
0.102575
0.10243
0.10227
0.102094
0.1019
0.101683
0.101446
0.101184
0.100894
0.100574
0.100221
0.0998313
0.0994007
0.0989239
0.0983942
0.0978003
0.0971429
0.0964169
0.0956198
0.0947487
0.0937886
0.0927302
0.0915655
0.0902864
0.0888569
0.0872724
0.105142
0.105126
0.105097
0.105061
0.105019
0.104971
0.104916
0.104856
0.104788
0.104712
0.104629
0.104539
0.104438
0.104324
0.104195
0.104055
0.1039
0.103729
0.10354
0.10333
0.103098
0.102843
0.10256
0.102247
0.101902
0.10152
0.101099
0.100632
0.100113
0.0995308
0.0988856
0.098172
0.0973875
0.0965291
0.0955817
0.0945357
0.093383
0.0921155
0.0906981
0.0891248
0.106692
0.106676
0.106649
0.106615
0.106575
0.10653
0.106478
0.10642
0.106355
0.106283
0.106204
0.106117
0.10602
0.10591
0.105785
0.10565
0.1055
0.105334
0.10515
0.104946
0.10472
0.104471
0.104195
0.10389
0.103552
0.10318
0.102767
0.10231
0.101802
0.101233
0.1006
0.0998994
0.0991278
0.0982825
0.0973484
0.096316
0.0951766
0.0939224
0.0925189
0.0909588
0.108211
0.108197
0.108171
0.108139
0.108101
0.108058
0.108009
0.107954
0.107892
0.107823
0.107747
0.107663
0.10757
0.107464
0.107344
0.107213
0.107068
0.106907
0.106728
0.10653
0.106311
0.106068
0.105799
0.105502
0.105172
0.104808
0.104405
0.103958
0.103462
0.102908
0.102286
0.101598
0.100839
0.100007
0.0990876
0.0980699
0.0969447
0.0957057
0.0943178
0.092773
0.1097
0.109686
0.109662
0.109631
0.109596
0.109555
0.109509
0.109456
0.109397
0.109332
0.109258
0.109178
0.109088
0.108986
0.10887
0.108744
0.108604
0.108447
0.108275
0.108082
0.107869
0.107633
0.107371
0.107081
0.10676
0.106404
0.106011
0.105574
0.105089
0.104548
0.10394
0.103265
0.102521
0.101703
0.100798
0.0997963
0.0986873
0.0974646
0.0960939
0.0945662
0.111156
0.111143
0.11112
0.111092
0.111058
0.11102
0.110976
0.110926
0.11087
0.110807
0.110737
0.11066
0.110574
0.110475
0.110364
0.110242
0.110106
0.109955
0.109787
0.1096
0.109394
0.109164
0.108909
0.108627
0.108314
0.107968
0.107584
0.107158
0.106685
0.106156
0.105562
0.104902
0.104172
0.103367
0.102479
0.101494
0.100403
0.0991981
0.097846
0.096337
0.11258
0.112567
0.112546
0.112519
0.112488
0.112451
0.11241
0.112362
0.112309
0.112249
0.112182
0.112108
0.112025
0.111931
0.111824
0.111706
0.111575
0.111429
0.111266
0.111085
0.110885
0.110662
0.110414
0.11014
0.109835
0.109498
0.109124
0.108708
0.108247
0.107731
0.107151
0.106506
0.105792
0.105002
0.10413
0.103163
0.102091
0.100905
0.0995731
0.0980842
0.11397
0.113958
0.113939
0.113914
0.113884
0.113849
0.11381
0.113765
0.113715
0.113657
0.113593
0.113523
0.113443
0.113352
0.113249
0.113135
0.113009
0.112868
0.112711
0.112535
0.112341
0.112125
0.111885
0.111618
0.111322
0.110994
0.11063
0.110225
0.109775
0.109273
0.108707
0.108078
0.10738
0.106606
0.10575
0.104801
0.103751
0.102586
0.101274
0.0998067
0.115327
0.115316
0.115298
0.115274
0.115246
0.115214
0.115177
0.115134
0.115086
0.115031
0.11497
0.114903
0.114826
0.114739
0.11464
0.11453
0.114409
0.114272
0.114121
0.113951
0.113763
0.113553
0.11332
0.113062
0.112774
0.112455
0.112101
0.111707
0.11127
0.110781
0.11023
0.109617