/*--------------------------------*- C++ -*----------------------------------*\
| =========                 |                                                 |
| \\      /  F ield         | OpenFOAM: The Open Source CFD Toolbox           |
|  \\    /   O peration     | Version:  5.x                                   |
|   \\  /    A nd           | Web:      www.OpenFOAM.org                      |
|    \\/     M anipulation  |                                                 |
\*---------------------------------------------------------------------------*/
FoamFile
{
    version     2.0;
    format      ascii;
    class       volScalarField;
    location    "500";
    object      p;
}
// * * * * * * * * * * * * * * * * * * * * * * * * * * * * * * * * * * * * * //

dimensions      [0 2 -2 0 0 0 0];

internalField   nonuniform List<scalar> 
26000
(
-5.14984e-05
0.0204376
-0.167569
-0.422692
-0.657299
-0.852483
-1.01274
-1.1514
-1.26523
-1.36408
-1.44839
-1.52026
-1.58834
-1.63219
-1.68181
-1.73214
-1.77086
-1.80431
-1.83347
-1.86018
-1.88391
-1.90425
-1.92255
-1.93839
-1.95229
-1.9646
-1.97523
-1.98458
-1.99238
-1.99868
-2.00407
-2.00823
-2.01156
-2.01372
-2.01509
-2.01565
-2.0155
-2.01421
-2.01299
-2.00491
-0.336081
-0.229788
-0.23763
-0.327575
-0.46689
-0.626192
-0.787818
-0.939898
-1.07778
-1.19805
-1.30263
-1.39017
-1.47122
-1.53948
-1.59941
-1.65308
-1.70124
-1.74286
-1.77875
-1.81106
-1.83905
-1.86402
-1.88597
-1.90517
-1.92226
-1.93703
-1.95016
-1.96144
-1.97112
-1.97917
-1.98595
-1.99155
-1.99599
-1.99939
-2.00173
-2.00327
-2.00393
-2.00375
-2.00325
-1.99743
-0.595145
-0.489497
-0.430077
-0.433464
-0.496692
-0.600793
-0.729309
-0.86513
-0.998922
-1.12224
-1.23261
-1.32731
-1.41166
-1.48877
-1.55482
-1.61251
-1.66409
-1.70993
-1.74928
-1.78428
-1.81503
-1.84199
-1.86595
-1.88686
-1.90538
-1.92157
-1.93574
-1.94813
-1.95877
-1.96777
-1.97535
-1.98166
-1.98679
-1.99079
-1.99372
-1.99574
-1.99689
-1.99707
-1.99672
-1.99282
-0.732637
-0.655129
-0.590292
-0.557447
-0.567478
-0.617568
-0.701711
-0.806901
-0.923444
-1.0401
-1.15054
-1.24924
-1.33832
-1.42273
-1.49667
-1.5598
-1.61575
-1.66619
-1.70994
-1.74888
-1.78295
-1.81283
-1.83947
-1.86272
-1.88335
-1.90136
-1.91713
-1.93097
-1.9429
-1.95312
-1.96175
-1.96902
-1.97499
-1.97976
-1.98341
-1.98606
-1.9878
-1.98848
-1.98865
-1.98605
-0.840023
-0.781788
-0.725086
-0.682023
-0.663958
-0.67564
-0.719398
-0.789507
-0.879898
-0.980572
-1.08322
-1.18061
-1.27063
-1.35893
-1.43873
-1.50732
-1.56757
-1.62227
-1.67015
-1.7129
-1.75039
-1.7832
-1.81254
-1.83819
-1.86093
-1.88085
-1.89824
-1.91357
-1.92682
-1.93826
-1.948
-1.95623
-1.96309
-1.96864
-1.97303
-1.97631
-1.97864
-1.97988
-1.98052
-1.97896
-0.92352
-0.879068
-0.832634
-0.791041
-0.762305
-0.752382
-0.767013
-0.806133
-0.86824
-0.947115
-1.03509
-1.1251
-1.21153
-1.29984
-1.38242
-1.45511
-1.51915
-1.57769
-1.62934
-1.67575
-1.71664
-1.75242
-1.78452
-1.81263
-1.83758
-1.85948
-1.87858
-1.89548
-1.91012
-1.92283
-1.93371
-1.94297
-1.95076
-1.95715
-1.9623
-1.96626
-1.96921
-1.97104
-1.97218
-1.97149
-0.991621
-0.956783
-0.919201
-0.882784
-0.85238
-0.83274
-0.829649
-0.845796
-0.882935
-0.938952
-1.0084
-1.0862
-1.16453
-1.2487
-1.33057
-1.40518
-1.47181
-1.53343
-1.58831
-1.63799
-1.6821
-1.72079
-1.75564
-1.78622
-1.81341
-1.83736
-1.85825
-1.87678
-1.89286
-1.90689
-1.91897
-1.92929
-1.93805
-1.94532
-1.95127
-1.95594
-1.95953
-1.96196
-1.96364
-1.9637
-1.04859
-1.02071
-0.990139
-0.959341
-0.931063
-0.908541
-0.896314
-0.897694
-0.91585
-0.951659
-1.0022
-1.06521
-1.13212
-1.20842
-1.28604
-1.35984
-1.42719
-1.49067
-1.54795
-1.60033
-1.6473
-1.68869
-1.72617
-1.75918
-1.7886
-1.81461
-1.83732
-1.85752
-1.8751
-1.89049
-1.9038
-1.91523
-1.92499
-1.93316
-1.93994
-1.94535
-1.94961
-1.95267
-1.95491
-1.95566
-1.09719
-1.07452
-1.04941
-1.02363
-0.998684
-0.976681
-0.960761
-0.953834
-0.959181
-0.97923
-1.01303
-1.06102
-1.11499
-1.18076
-1.25104
-1.32125
-1.38715
-1.45088
-1.50941
-1.56363
-1.6129
-1.65661
-1.6965
-1.73179
-1.76337
-1.7914
-1.81592
-1.83782
-1.8569
-1.87369
-1.88826
-1.90082
-1.91161
-1.9207
-1.92834
-1.93452
-1.93947
-1.94317
-1.946
-1.94739
-1.13927
-1.12059
-1.09979
-1.07819
-1.05668
-1.0366
-1.02001
-1.00913
-1.00674
-1.01568
-1.03619
-1.07067
-1.11189
-1.16593
-1.2268
-1.29106
-1.35334
-1.41548
-1.47387
-1.52885
-1.57965
-1.62515
-1.66706
-1.70439
-1.73796
-1.76793
-1.79422
-1.81778
-1.83837
-1.85655
-1.87239
-1.88611
-1.89796
-1.90799
-1.91649
-1.92346
-1.92913
-1.93349
-1.93693
-1.93892
-1.1761
-1.16059
-1.1432
-1.12507
-1.10667
-1.08893
-1.07314
-1.06093
-1.05438
-1.05617
-1.06702
-1.09042
-1.12035
-1.16285
-1.21342
-1.27009
-1.32694
-1.38574
-1.44249
-1.49702
-1.5484
-1.59498
-1.63839
-1.67741
-1.71271
-1.74445
-1.77239
-1.79755
-1.81962
-1.83917
-1.85628
-1.87115
-1.88407
-1.89506
-1.90444
-1.9122
-1.9186
-1.92363
-1.92769
-1.93028
-1.20867
-1.19568
-1.18105
-1.16576
-1.15008
-1.13464
-1.12029
-1.10816
-1.09976
-1.09732
-1.10168
-1.11664
-1.13735
-1.1695
-1.20995
-1.25826
-1.3085
-1.3625
-1.41622
-1.46902
-1.51993
-1.56678
-1.61105
-1.65128
-1.68798
-1.72124
-1.75068
-1.77732
-1.80079
-1.82166
-1.84001
-1.85602
-1.86999
-1.88194
-1.8922
-1.90077
-1.9079
-1.91361
-1.9183
-1.92147
-1.23768
-1.22674
-1.21437
-1.20142
-1.18805
-1.17473
-1.16198
-1.15064
-1.14175
-1.13707
-1.13737
-1.14626
-1.15993
-1.18345
-1.21478
-1.25475
-1.29787
-1.34609
-1.39564
-1.44556
-1.49497
-1.5412
-1.58561
-1.62649
-1.66415
-1.69861
-1.72931
-1.75728
-1.78203
-1.80415
-1.82368
-1.84079
-1.85579
-1.86869
-1.87983
-1.8892
-1.89706
-1.90345
-1.90878
-1.91252
-1.2637
-1.25445
-1.24394
-1.23294
-1.22153
-1.21007
-1.1989
-1.18863
-1.17999
-1.17433
-1.17228
-1.17703
-1.18562
-1.20234
-1.22595
-1.25822
-1.2943
-1.33632
-1.38094
-1.42707
-1.47402
-1.51879
-1.56258
-1.6035
-1.64162
-1.67689
-1.70857
-1.73764
-1.76352
-1.78677
-1.8074
-1.82556
-1.84155
-1.85537
-1.86737
-1.87752
-1.88612
-1.89318
-1.89914
-1.90345
-1.28717
-1.27932
-1.27037
-1.26099
-1.25124
-1.24139
-1.23168
-1.22256
-1.21453
-1.20865
-1.20539
-1.20745
-1.21252
-1.22412
-1.24155
-1.26711
-1.2967
-1.33254
-1.37188
-1.41363
-1.45737
-1.49992
-1.54237
-1.58269
-1.62075
-1.65641
-1.68872
-1.71863
-1.74544
-1.76966
-1.79128
-1.81041
-1.82734
-1.84204
-1.85486
-1.86579
-1.8751
-1.88281
-1.8894
-1.89427
-1.30846
-1.30178
-1.29412
-1.28611
-1.27776
-1.26931
-1.26091
-1.2529
-1.24565
-1.23996
-1.2362
-1.23659
-1.23933
-1.24722
-1.2599
-1.27988
-1.30378
-1.33385
-1.36792
-1.40503
-1.44503
-1.48479
-1.52526
-1.56439
-1.60185
-1.63744
-1.67002
-1.70046
-1.72797
-1.753
-1.77547
-1.79546
-1.81324
-1.82876
-1.84237
-1.85403
-1.86403
-1.87239
-1.87959
-1.88501
-1.32784
-1.32214
-1.31559
-1.30872
-1.30157
-1.29432
-1.28707
-1.2801
-1.27366
-1.26838
-1.26456
-1.26398
-1.26523
-1.27052
-1.27967
-1.29517
-1.31429
-1.33922
-1.36832
-1.4008
-1.43682
-1.47337
-1.51136
-1.54879
-1.58515
-1.62022
-1.65269
-1.68335
-1.7113
-1.73692
-1.76008
-1.7808
-1.79934
-1.81561
-1.82995
-1.84231
-1.85297
-1.86194
-1.86974
-1.87568
-1.34556
-1.34069
-1.33507
-1.32918
-1.32305
-1.31683
-1.31059
-1.30455
-1.2989
-1.29414
-1.29049
-1.2894
-1.28975
-1.29326
-1.29985
-1.31186
-1.3271
-1.34761
-1.37223
-1.40032
-1.43233
-1.46548
-1.50065
-1.53596
-1.5708
-1.60493
-1.63692
-1.66746
-1.69558
-1.72157
-1.74524
-1.76655
-1.78574
-1.80266
-1.81767
-1.83066
-1.84194
-1.8515
-1.85986
-1.86632
-1.36181
-1.35765
-1.35282
-1.34777
-1.34251
-1.33717
-1.33181
-1.3266
-1.32169
-1.31747
-1.31412
-1.31282
-1.31267
-1.31498
-1.31977
-1.32911
-1.34128
-1.3581
-1.3788
-1.4029
-1.43106
-1.46079
-1.49296
-1.52586
-1.55884
-1.59167
-1.62283
-1.65294
-1.68095
-1.70707
-1.73105
-1.7528
-1.7725
-1.78998
-1.80557
-1.81915
-1.83099
-1.8411
-1.84999
-1.85693
-1.37675
-1.3732
-1.36905
-1.36472
-1.3602
-1.35563
-1.35103
-1.34655
-1.34231
-1.33862
-1.33564
-1.3343
-1.3339
-1.33544
-1.33898
-1.34631
-1.35608
-1.36991
-1.38728
-1.40786
-1.43244
-1.45888
-1.48801
-1.51834
-1.54922
-1.58045
-1.6105
-1.63989
-1.66752
-1.69354
-1.71763
-1.73964
-1.75972
-1.77765
-1.79373
-1.80781
-1.82016
-1.83078
-1.84016
-1.84755
-1.39054
-1.38751
-1.38394
-1.38022
-1.37635
-1.37243
-1.36849
-1.36466
-1.36102
-1.35783
-1.35523
-1.35396
-1.35348
-1.35454
-1.35721
-1.36306
-1.37099
-1.38241
-1.39701
-1.41456
-1.43592
-1.45928
-1.48545
-1.51318
-1.54182
-1.57124
-1.59993
-1.62834
-1.65536
-1.68104
-1.70505
-1.72715
-1.74746
-1.76572
-1.78219
-1.7967
-1.8095
-1.82056
-1.83039
-1.8382
-1.40329
-1.4007
-1.39764
-1.39444
-1.39112
-1.38777
-1.38441
-1.38114
-1.37804
-1.37531
-1.37307
-1.37195
-1.37148
-1.37225
-1.37435
-1.37909
-1.38562
-1.39513
-1.40745
-1.42244
-1.44098
-1.46153
-1.48492
-1.51008
-1.53644
-1.56393
-1.59108
-1.61831
-1.6445
-1.66964
-1.69337
-1.7154
-1.73579
-1.75425
-1.77101
-1.78586
-1.79903
-1.81048
-1.82071
-1.82891
-1.4151
-1.41289
-1.41027
-1.40753
-1.40469
-1.40183
-1.39896
-1.39619
-1.39356
-1.39125
-1.38936
-1.3884
-1.388
-1.38862
-1.39033
-1.39427
-1.39973
-1.40774
-1.41821
-1.43106
-1.44715
-1.46521
-1.48603
-1.50875
-1.53286
-1.55835
-1.58386
-1.60974
-1.63493
-1.65935
-1.68263
-1.70442
-1.72476
-1.74329
-1.76022
-1.77533
-1.7888
-1.80058
-1.81114
-1.81969
-1.42606
-1.42418
-1.42194
-1.41959
-1.41717
-1.41473
-1.4123
-1.40995
-1.40774
-1.4058
-1.40423
-1.40345
-1.40316
-1.40371
-1.40518
-1.40852
-1.41317
-1.41999
-1.42897
-1.44005
-1.45405
-1.46994
-1.48844
-1.50887
-1.53082
-1.55433
-1.57814
-1.60257
-1.62662
-1.65018
-1.67285
-1.69425
-1.71439
-1.73288
-1.74988
-1.76515
-1.77884
-1.79088
-1.80173
-1.81057
-1.43625
-1.43466
-1.43274
-1.43074
-1.42867
-1.42661
-1.42455
-1.42258
-1.42073
-1.41913
-1.41785
-1.41725
-1.41707
-1.4176
-1.41892
-1.42182
-1.42586
-1.43175
-1.43952
-1.44915
-1.46138
-1.47538
-1.49181
-1.51016
-1.53008
-1.55166
-1.57376
-1.59669
-1.6195
-1.64208
-1.66401
-1.68491
-1.70472
-1.72305
-1.74001
-1.75534
-1.76918
-1.78141
-1.79248
-1.80157
-1.44573
-1.4444
-1.44276
-1.44106
-1.43931
-1.43756
-1.43583
-1.43419
-1.43266
-1.43135
-1.43033
-1.4299
-1.42984
-1.43039
-1.43162
-1.4342
-1.43776
-1.44292
-1.44972
-1.45815
-1.46889
-1.48126
-1.49589
-1.51236
-1.5304
-1.55013
-1.57057
-1.59198
-1.61351
-1.63501
-1.6561
-1.67637
-1.69574
-1.7138
-1.73064
-1.74595
-1.75984
-1.7722
-1.78343
-1.79272
-1.45458
-1.45346
-1.45207
-1.45063
-1.44915
-1.44768
-1.44624
-1.44488
-1.44362
-1.44257
-1.44178
-1.44151
-1.44158
-1.44216
-1.44333
-1.44568
-1.44888
-1.45346
-1.45946
-1.46691
-1.4764
-1.48739
-1.50043
-1.51522
-1.53154
-1.54956
-1.56839
-1.58831
-1.60852
-1.62891
-1.64908
-1.66863
-1.68747
-1.70516
-1.72177
-1.73697
-1.75084
-1.76326
-1.77459
-1.78402
-1.46283
-1.4619
-1.46073
-1.45951
-1.45827
-1.45705
-1.45585
-1.45474
-1.45373
-1.45291
-1.45232
-1.45219
-1.45237
-1.453
-1.45415
-1.45631
-1.45923
-1.46334
-1.46871
-1.47534
-1.48378
-1.49358
-1.50525
-1.51855
-1.53333
-1.54976
-1.56707
-1.58554
-1.60445
-1.62369
-1.64288
-1.66165
-1.67987
-1.69712
-1.71341
-1.72842
-1.7422
-1.75461
-1.76598
-1.7755
-1.47054
-1.46977
-1.4688
-1.46777
-1.46674
-1.46573
-1.46475
-1.46385
-1.46306
-1.46243
-1.46202
-1.46203
-1.4623
-1.46299
-1.46412
-1.46615
-1.46884
-1.47258
-1.47742
-1.48338
-1.49094
-1.49973
-1.5102
-1.5222
-1.53559
-1.55056
-1.56646
-1.58354
-1.60118
-1.61926
-1.63746
-1.65538
-1.67293
-1.68965
-1.70556
-1.72031
-1.73393
-1.74626
-1.75761
-1.76718
-1.47775
-1.47712
-1.47631
-1.47547
-1.47461
-1.47379
-1.473
-1.47229
-1.47167
-1.47122
-1.47097
-1.47109
-1.47146
-1.47219
-1.47333
-1.47525
-1.47776
-1.48119
-1.48559
-1.49099
-1.49781
-1.50573
-1.51518
-1.52602
-1.53817
-1.55183
-1.56642
-1.58219
-1.5986
-1.61555
-1.63274
-1.64979
-1.66661
-1.68275
-1.69821
-1.71263
-1.72603
-1.73823
-1.74949
-1.75906
-1.4845
-1.484
-1.48333
-1.48263
-1.48194
-1.48127
-1.48065
-1.4801
-1.47965
-1.47935
-1.47923
-1.47946
-1.4799
-1.48068
-1.48182
-1.48366
-1.48602
-1.4892
-1.49324
-1.49816
-1.50435
-1.51153
-1.52008
-1.52992
-1.54097
-1.55343
-1.56683
-1.58138
-1.59662
-1.61246
-1.62864
-1.64481
-1.66087
-1.67639
-1.69134
-1.70539
-1.71851
-1.73051
-1.74165
-1.75115
-1.49081
-1.49042
-1.48988
-1.48932
-1.48876
-1.48824
-1.48776
-1.48735
-1.48704
-1.48687
-1.48687
-1.48718
-1.4877
-1.48852
-1.48967
-1.49144
-1.49367
-1.49664
-1.50037
-1.50489
-1.51053
-1.51708
-1.52486
-1.53381
-1.54388
-1.55527
-1.56757
-1.58099
-1.59513
-1.60991
-1.62511
-1.6404
-1.65567
-1.67054
-1.68495
-1.69856
-1.71135
-1.72312
-1.73407
-1.74348
-1.49673
-1.49643
-1.49601
-1.49556
-1.49512
-1.49472
-1.49437
-1.49409
-1.49389
-1.49384
-1.49394
-1.49433
-1.4949
-1.49576
-1.49691
-1.49862
-1.50076
-1.50354
-1.50701
-1.51119
-1.51636
-1.52236
-1.52946
-1.53763
-1.54684
-1.55727
-1.56857
-1.58095
-1.59405
-1.60783
-1.62207
-1.63648
-1.65097
-1.66516
-1.67899
-1.69214
-1.70456
-1.71604
-1.72677
-1.73603
-1.50228
-1.50206
-1.50173
-1.50139
-1.50106
-1.50076
-1.50052
-1.50034
-1.50025
-1.5003
-1.50049
-1.50094
-1.50157
-1.50245
-1.50361
-1.50527
-1.50731
-1.50994
-1.51318
-1.51706
-1.52183
-1.52735
-1.53386
-1.54134
-1.54978
-1.55935
-1.56975
-1.58116
-1.59331
-1.60613
-1.61945
-1.63301
-1.64672
-1.66022
-1.67346
-1.68611
-1.69812
-1.70928
-1.71974
-1.72882
-1.50748
-1.50733
-1.50709
-1.50683
-1.5066
-1.5064
-1.50624
-1.50616
-1.50617
-1.50629
-1.50656
-1.50706
-1.50773
-1.50864
-1.5098
-1.51142
-1.51338
-1.51587
-1.51891
-1.52253
-1.52695
-1.53204
-1.53803
-1.54491
-1.55267
-1.56146
-1.57104
-1.58158
-1.59283
-1.60475
-1.6172
-1.62993
-1.64287
-1.65568
-1.66831
-1.68045
-1.69202
-1.70283
-1.71299
-1.72185
-1.51235
-1.51227
-1.5121
-1.51192
-1.51177
-1.51165
-1.51158
-1.51158
-1.51166
-1.51186
-1.51219
-1.51274
-1.51344
-1.51437
-1.51553
-1.5171
-1.51899
-1.52136
-1.52422
-1.52761
-1.53172
-1.53644
-1.54198
-1.54832
-1.55546
-1.56356
-1.57239
-1.58213
-1.59256
-1.60364
-1.61526
-1.6272
-1.63939
-1.65152
-1.66353
-1.67514
-1.68625
-1.69667
-1.70651
-1.71512
-1.51692
-1.51689
-1.51679
-1.51668
-1.5166
-1.51655
-1.51655
-1.51662
-1.51677
-1.51703
-1.51741
-1.518
-1.51873
-1.51967
-1.52083
-1.52236
-1.52418
-1.52644
-1.52915
-1.53233
-1.53616
-1.54055
-1.54568
-1.55154
-1.55814
-1.56561
-1.57377
-1.58278
-1.59244
-1.60275
-1.61359
-1.62477
-1.63623
-1.64769
-1.65909
-1.67015
-1.68079
-1.69081
-1.70029
-1.70863
-1.52121
-1.52123
-1.52119
-1.52114
-1.52111
-1.52113
-1.52119
-1.52132
-1.52152
-1.52184
-1.52226
-1.52289
-1.52364
-1.52458
-1.52573
-1.52723
-1.52898
-1.53114
-1.5337
-1.5367
-1.54029
-1.54438
-1.54915
-1.55458
-1.56069
-1.56759
-1.57515
-1.58348
-1.59245
-1.60203
-1.61213
-1.62259
-1.63335
-1.64416
-1.65495
-1.66547
-1.67563
-1.68523
-1.69434
-1.70238
-1.52523
-1.52529
-1.5253
-1.5253
-1.52533
-1.5254
-1.52552
-1.5257
-1.52595
-1.5263
-1.52677
-1.52742
-1.52818
-1.52913
-1.53027
-1.53173
-1.53342
-1.53549
-1.53792
-1.54075
-1.54412
-1.54795
-1.55238
-1.55743
-1.5631
-1.56949
-1.57649
-1.58422
-1.59254
-1.60144
-1.61086
-1.62064
-1.63073
-1.6409
-1.6511
-1.66108
-1.67075
-1.67992
-1.68865
-1.69637
-1.52901
-1.5291
-1.52915
-1.5292
-1.52928
-1.52939
-1.52955
-1.52978
-1.53007
-1.53046
-1.53096
-1.53162
-1.5324
-1.53335
-1.53447
-1.53589
-1.53753
-1.53951
-1.54182
-1.5445
-1.54767
-1.55125
-1.55539
-1.56009
-1.56536
-1.57129
-1.57778
-1.58495
-1.59268
-1.60096
-1.60974
-1.61887
-1.62833
-1.63789
-1.64751
-1.65695
-1.66613
-1.67487
-1.6832
-1.69059
-1.53255
-1.53267
-1.53276
-1.53285
-1.53296
-1.53312
-1.53332
-1.53358
-1.53391
-1.53433
-1.53485
-1.53552
-1.53631
-1.53725
-1.53836
-1.53974
-1.54133
-1.54322
-1.54543
-1.54796
-1.55095
-1.55431
-1.55819
-1.56257
-1.56747
-1.57299
-1.57902
-1.58567
-1.59285
-1.60056
-1.60874
-1.61727
-1.62611
-1.63509
-1.64414
-1.65306
-1.66176
-1.67006
-1.67799
-1.68504
-1.53586
-1.53602
-1.53613
-1.53626
-1.53641
-1.53659
-1.53683
-1.53712
-1.53748
-1.53792
-1.53846
-1.53915
-1.53993
-1.54087
-1.54197
-1.54331
-1.54484
-1.54665
-1.54875
-1.55116
-1.55397
-1.55714
-1.56077
-1.56487
-1.56944
-1.57457
-1.58018
-1.58637
-1.59304
-1.60021
-1.60783
-1.61579
-1.62407
-1.63249
-1.64099
-1.6494
-1.65762
-1.66549
-1.67301
-1.67972
-1.53898
-1.53915
-1.5393
-1.53945
-1.53963
-1.53984
-1.5401
-1.54042
-1.5408
-1.54127
-1.54182
-1.54251
-1.5433
-1.54423
-1.5453
-1.5466
-1.54808
-1.54982
-1.55183
-1.55411
-1.55677
-1.55975
-1.56316
-1.56699
-1.57126
-1.57604
-1.58127
-1.58702
-1.59323
-1.59991
-1.60701
-1.61444
-1.62217
-1.63005
-1.63804
-1.64595
-1.6537
-1.66114
-1.66826
-1.67462
-1.54189
-1.54209
-1.54226
-1.54243
-1.54264
-1.54288
-1.54316
-1.5435
-1.5439
-1.54438
-1.54494
-1.54563
-1.54641
-1.54733
-1.54838
-1.54965
-1.55108
-1.55275
-1.55466
-1.55683
-1.55935
-1.56216
-1.56536
-1.56895
-1.57294
-1.5774
-1.58227
-1.58763
-1.59341
-1.59963
-1.60624
-1.61317
-1.62039
-1.62777
-1.63526
-1.64269
-1.64999
-1.65701
-1.66373
-1.66973
-1.54463
-1.54484
-1.54503
-1.54522
-1.54545
-1.54571
-1.54601
-1.54637
-1.54678
-1.54727
-1.54784
-1.54853
-1.54931
-1.55021
-1.55124
-1.55246
-1.55384
-1.55544
-1.55727
-1.55934
-1.56172
-1.56437
-1.56738
-1.57075
-1.57448
-1.57865
-1.58319
-1.58819
-1.59357
-1.59936
-1.60552
-1.61199
-1.61873
-1.62563
-1.63264
-1.63961
-1.64647
-1.65307
-1.6594
-1.66506
-1.54719
-1.54741
-1.54762
-1.54783
-1.54808
-1.54835
-1.54867
-1.54904
-1.54946
-1.54996
-1.55053
-1.55122
-1.55198
-1.55287
-1.55388
-1.55506
-1.55639
-1.55793
-1.55967
-1.56164
-1.56389
-1.5664
-1.56923
-1.57239
-1.57589
-1.57979
-1.58403
-1.58869
-1.59371
-1.5991
-1.60485
-1.61087
-1.61716
-1.6236
-1.63016
-1.63669
-1.64312
-1.64932
-1.65527
-1.66059
-1.54959
-1.54982
-1.55004
-1.55027
-1.55053
-1.55082
-1.55115
-1.55153
-1.55196
-1.55246
-1.55303
-1.55371
-1.55447
-1.55534
-1.55632
-1.55747
-1.55875
-1.56022
-1.56189
-1.56376
-1.56589
-1.56826
-1.57093
-1.5739
-1.57718
-1.58083
-1.58479
-1.58914
-1.59382
-1.59884
-1.60419
-1.60981
-1.61568
-1.62169
-1.62782
-1.63393
-1.63995
-1.64576
-1.65133
-1.65631
-1.55184
-1.55208
-1.55231
-1.55255
-1.55282
-1.55312
-1.55346
-1.55385
-1.55428
-1.55479
-1.55536
-1.55603
-1.55677
-1.55762
-1.55857
-1.55968
-1.56092
-1.56233
-1.56392
-1.5657
-1.56773
-1.56997
-1.57248
-1.57527
-1.57835
-1.58176
-1.58547
-1.58953
-1.59389
-1.59858
-1.60356
-1.6088
-1.61427
-1.61988
-1.6256
-1.6313
-1.63693
-1.64237
-1.64758
-1.65223
-1.55395
-1.55419
-1.55443
-1.55468
-1.55496
-1.55527
-1.55561
-1.556
-1.55644
-1.55694
-1.55751
-1.55817
-1.5589
-1.55973
-1.56065
-1.56173
-1.56292
-1.56427
-1.56579
-1.56748
-1.5694
-1.57152
-1.57389
-1.57652
-1.57941
-1.58261
-1.58607
-1.58986
-1.59394
-1.59831
-1.60295
-1.60783
-1.61292
-1.61815
-1.62348
-1.62881
-1.63407
-1.63914
-1.644
-1.64834
-1.55592
-1.55617
-1.55641
-1.55667
-1.55695
-1.55727
-1.55762
-1.55801
-1.55845
-1.55895
-1.55951
-1.56016
-1.56087
-1.56168
-1.56258
-1.56361
-1.56476
-1.56605
-1.5675
-1.56912
-1.57094
-1.57294
-1.57518
-1.57765
-1.58037
-1.58336
-1.58661
-1.59014
-1.59395
-1.59802
-1.60235
-1.60689
-1.61164
-1.61651
-1.62148
-1.62644
-1.63134
-1.63607
-1.6406
-1.64463
-1.55776
-1.55802
-1.55827
-1.55853
-1.55882
-1.55913
-1.55948
-1.55988
-1.56032
-1.56081
-1.56136
-1.562
-1.56269
-1.56348
-1.56435
-1.56535
-1.56645
-1.56769
-1.56908
-1.57061
-1.57234
-1.57424
-1.57635
-1.57867
-1.58122
-1.58403
-1.58707
-1.59038
-1.59393
-1.59772
-1.60176
-1.60599
-1.61041
-1.61494
-1.61957
-1.62419
-1.62875
-1.63315
-1.63736
-1.6411
-1.55949
-1.55974
-1.56
-1.56026
-1.56055
-1.56087
-1.56122
-1.56161
-1.56205
-1.56254
-1.56308
-1.5637
-1.56438
-1.56514
-1.56599
-1.56695
-1.568
-1.56919
-1.57052
-1.57198
-1.57362
-1.57541
-1.5774
-1.57959
-1.58199
-1.58462
-1.58747
-1.59056
-1.59387
-1.59741
-1.60117
-1.60511
-1.60923
-1.61345
-1.61775
-1.62204
-1.62628
-1.63037
-1.63427
-1.63774
-1.5611
-1.56136
-1.56161
-1.56188
-1.56217
-1.56249
-1.56284
-1.56323
-1.56366
-1.56414
-1.56467
-1.56528
-1.56594
-1.56668
-1.56749
-1.56842
-1.56943
-1.57057
-1.57183
-1.57322
-1.57478
-1.57648
-1.57836
-1.58042
-1.58267
-1.58514
-1.58781
-1.5907
-1.59379
-1.59709
-1.60059
-1.60426
-1.60809
-1.61201
-1.61601
-1.62
-1.62394
-1.62773
-1.63134
-1.63454
-1.56261
-1.56286
-1.56312
-1.56339
-1.56368
-1.564
-1.56434
-1.56473
-1.56515
-1.56563
-1.56615
-1.56674
-1.56738
-1.56809
-1.56888
-1.56977
-1.57075
-1.57183
-1.57304
-1.57436
-1.57583
-1.57744
-1.57922
-1.58116
-1.58328
-1.58559
-1.58809
-1.59079
-1.59368
-1.59676
-1.60002
-1.60344
-1.60699
-1.61064
-1.61435
-1.61806
-1.62171
-1.62522
-1.62856
-1.6315
-1.56402
-1.56427
-1.56453
-1.56479
-1.56508
-1.5654
-1.56574
-1.56612
-1.56654
-1.567
-1.56751
-1.56808
-1.56871
-1.5694
-1.57016
-1.57102
-1.57195
-1.57299
-1.57414
-1.57539
-1.57679
-1.57831
-1.57999
-1.58182
-1.58381
-1.58598
-1.58832
-1.59085
-1.59354
-1.59642
-1.59945
-1.60263
-1.60594
-1.60932
-1.61277
-1.6162
-1.61959
-1.62283
-1.62591
-1.62862
-1.56534
-1.56559
-1.56584
-1.5661
-1.56639
-1.5667
-1.56704
-1.56742
-1.56783
-1.56828
-1.56877
-1.56933
-1.56993
-1.5706
-1.57134
-1.57216
-1.57305
-1.57404
-1.57514
-1.57633
-1.57766
-1.5791
-1.58068
-1.5824
-1.58428
-1.58631
-1.5885
-1.59086
-1.59338
-1.59606
-1.59889
-1.60185
-1.60492
-1.60806
-1.61126
-1.61444
-1.61757
-1.62057
-1.6234
-1.62588
-1.56657
-1.56681
-1.56706
-1.56733
-1.56761
-1.56792
-1.56825
-1.56862
-1.56902
-1.56946
-1.56994
-1.57048
-1.57106
-1.57171
-1.57242
-1.5732
-1.57406
-1.57501
-1.57605
-1.57719
-1.57844
-1.5798
-1.5813
-1.58292
-1.58468
-1.58659
-1.58864
-1.59085
-1.5932
-1.5957
-1.59833
-1.60108
-1.60394
-1.60685
-1.60981
-1.61276
-1.61565
-1.61841
-1.62102
-1.62329
-1.56772
-1.56796
-1.5682
-1.56846
-1.56874
-1.56904
-1.56937
-1.56973
-1.57012
-1.57055
-1.57102
-1.57154
-1.57211
-1.57273
-1.57341
-1.57416
-1.57498
-1.57589
-1.57688
-1.57796
-1.57915
-1.58044
-1.58184
-1.58337
-1.58503
-1.58682
-1.58874
-1.59081
-1.593
-1.59533
-1.59778
-1.60034
-1.60299
-1.60569
-1.60843
-1.61116
-1.61382
-1.61637
-1.61876
-1.62083
-1.56879
-1.56902
-1.56927
-1.56952
-1.5698
-1.57009
-1.57041
-1.57076
-1.57115
-1.57156
-1.57202
-1.57252
-1.57307
-1.57367
-1.57432
-1.57504
-1.57583
-1.57669
-1.57763
-1.57866
-1.57978
-1.581
-1.58233
-1.58377
-1.58533
-1.58701
-1.58881
-1.59074
-1.59279
-1.59496
-1.59724
-1.59962
-1.60207
-1.60458
-1.60712
-1.60963
-1.61209
-1.61443
-1.61662
-1.61851
-1.56979
-1.57002
-1.57026
-1.57051
-1.57078
-1.57107
-1.57138
-1.57172
-1.57209
-1.5725
-1.57294
-1.57343
-1.57395
-1.57453
-1.57515
-1.57585
-1.57659
-1.57742
-1.57831
-1.57929
-1.58035
-1.58151
-1.58276
-1.58412
-1.58558
-1.58716
-1.58884
-1.59065
-1.59256
-1.59458
-1.59671
-1.59891
-1.60119
-1.60351
-1.60586
-1.60818
-1.61045
-1.6126
-1.6146
-1.61631
-1.57072
-1.57094
-1.57118
-1.57142
-1.57169
-1.57197
-1.57228
-1.57261
-1.57297
-1.57336
-1.57379
-1.57426
-1.57476
-1.57532
-1.57592
-1.57658
-1.5773
-1.57808
-1.57893
-1.57986
-1.58087
-1.58196
-1.58314
-1.58442
-1.58579
-1.58727
-1.58885
-1.59054
-1.59232
-1.5942
-1.59618
-1.59823
-1.60034
-1.60249
-1.60466
-1.6068
-1.60888
-1.61086
-1.61268
-1.61424
-1.57159
-1.57181
-1.57203
-1.57227
-1.57253
-1.57281
-1.5731
-1.57343
-1.57378
-1.57416
-1.57457
-1.57502
-1.57551
-1.57604
-1.57662
-1.57725
-1.57793
-1.57868
-1.57949
-1.58037
-1.58132
-1.58235
-1.58347
-1.58467
-1.58596
-1.58735
-1.58883
-1.5904
-1.59207
-1.59383
-1.59566
-1.59756
-1.59952
-1.60151
-1.60351
-1.60549
-1.6074
-1.60921
-1.61087
-1.61228
-1.5724
-1.57261
-1.57283
-1.57306
-1.57331
-1.57358
-1.57387
-1.57419
-1.57453
-1.57489
-1.57529
-1.57573
-1.57619
-1.5767
-1.57726
-1.57786
-1.57851
-1.57922
-1.57999
-1.58083
-1.58173
-1.5827
-1.58376
-1.58489
-1.5861
-1.5874
-1.58879
-1.59026
-1.59181
-1.59345
-1.59515
-1.59692
-1.59874
-1.60058
-1.60242
-1.60424
-1.606
-1.60765
-1.60917
-1.61044
-1.57315
-1.57336
-1.57357
-1.5738
-1.57404
-1.5743
-1.57458
-1.57489
-1.57522
-1.57557
-1.57595
-1.57637
-1.57682
-1.57731
-1.57784
-1.57842
-1.57904
-1.57972
-1.58045
-1.58124
-1.58209
-1.58301
-1.584
-1.58507
-1.58621
-1.58743
-1.58872
-1.5901
-1.59155
-1.59307
-1.59466
-1.5963
-1.59798
-1.59968
-1.60138
-1.60305
-1.60467
-1.60618
-1.60756
-1.6087
-1.57385
-1.57405
-1.57426
-1.57448
-1.57472
-1.57497
-1.57524
-1.57554
-1.57585
-1.5762
-1.57657
-1.57697
-1.5774
-1.57787
-1.57837
-1.57893
-1.57952
-1.58016
-1.58086
-1.5816
-1.58241
-1.58328
-1.58422
-1.58522
-1.58629
-1.58743
-1.58864
-1.58993
-1.59128
-1.5927
-1.59417
-1.59569
-1.59725
-1.59882
-1.60039
-1.60193
-1.60341
-1.60479
-1.60604
-1.60707
-1.5745
-1.57469
-1.5749
-1.57511
-1.57534
-1.57559
-1.57585
-1.57614
-1.57644
-1.57677
-1.57713
-1.57751
-1.57793
-1.57838
-1.57886
-1.57939
-1.57995
-1.58056
-1.58122
-1.58193
-1.58269
-1.58351
-1.5844
-1.58534
-1.58634
-1.58742
-1.58855
-1.58975
-1.59101
-1.59233
-1.5937
-1.59511
-1.59655
-1.598
-1.59945
-1.60086
-1.60221
-1.60347
-1.6046
-1.60553
-1.5751
-1.57529
-1.57549
-1.5757
-1.57592
-1.57616
-1.57641
-1.57669
-1.57698
-1.5773
-1.57764
-1.57801
-1.57841
-1.57884
-1.5793
-1.5798
-1.58034
-1.58092
-1.58155
-1.58222
-1.58294
-1.58372
-1.58455
-1.58543
-1.58638
-1.58738
-1.58844
-1.58957
-1.59074
-1.59197
-1.59324
-1.59455
-1.59588
-1.59722
-1.59855
-1.59985
-1.60109
-1.60223
-1.60326
-1.60409
-1.57566
-1.57585
-1.57604
-1.57624
-1.57646
-1.57669
-1.57693
-1.5772
-1.57748
-1.57779
-1.57812
-1.57847
-1.57885
-1.57926
-1.5797
-1.58018
-1.58069
-1.58125
-1.58184
-1.58247
-1.58316
-1.58389
-1.58467
-1.5855
-1.58639
-1.58733
-1.58833
-1.58937
-1.59047
-1.59161
-1.59279
-1.59401
-1.59524
-1.59647
-1.5977
-1.59889
-1.60002
-1.60106
-1.60199
-1.60273
-1.57618
-1.57636
-1.57655
-1.57674
-1.57695
-1.57717
-1.57741
-1.57767
-1.57794
-1.57823
-1.57855
-1.57889
-1.57926
-1.57965
-1.58007
-1.58052
-1.58101
-1.58154
-1.5821
-1.5827
-1.58335
-1.58404
-1.58477
-1.58556
-1.58639
-1.58727
-1.5882
-1.58918
-1.5902
-1.59126
-1.59236
-1.59348
-1.59462
-1.59576
-1.59689
-1.59798
-1.59902
-1.59996
-1.6008
-1.60146
-1.57667
-1.57684
-1.57702
-1.57721
-1.57741
-1.57762
-1.57785
-1.5781
-1.57836
-1.57865
-1.57895
-1.57927
-1.57962
-1.58
-1.5804
-1.58083
-1.5813
-1.58179
-1.58233
-1.5829
-1.58351
-1.58416
-1.58485
-1.58559
-1.58637
-1.5872
-1.58807
-1.58898
-1.58993
-1.59092
-1.59194
-1.59298
-1.59403
-1.59509
-1.59612
-1.59712
-1.59807
-1.59893
-1.59968
-1.60027
-1.57712
-1.57728
-1.57745
-1.57764
-1.57783
-1.57804
-1.57826
-1.5785
-1.57875
-1.57902
-1.57931
-1.57962
-1.57996
-1.58032
-1.5807
-1.58111
-1.58155
-1.58203
-1.58253
-1.58307
-1.58365
-1.58426
-1.58492
-1.58561
-1.58634
-1.58712
-1.58793
-1.58878
-1.58967
-1.59059
-1.59153
-1.5925
-1.59347
-1.59444
-1.59539
-1.59631
-1.59717
-1.59795
-1.59863
-1.59915
-1.57753
-1.57769
-1.57786
-1.57803
-1.57822
-1.57842
-1.57864
-1.57886
-1.57911
-1.57937
-1.57965
-1.57994
-1.58026
-1.58061
-1.58097
-1.58136
-1.58178
-1.58223
-1.58271
-1.58322
-1.58377
-1.58435
-1.58496
-1.58561
-1.5863
-1.58703
-1.58779
-1.58858
-1.58941
-1.59027
-1.59114
-1.59204
-1.59293
-1.59383
-1.5947
-1.59554
-1.59633
-1.59704
-1.59764
-1.59811
-1.57791
-1.57807
-1.57823
-1.5784
-1.57858
-1.57877
-1.57898
-1.5792
-1.57943
-1.57968
-1.57995
-1.58024
-1.58054
-1.58087
-1.58122
-1.58159
-1.58199
-1.58241
-1.58287
-1.58335
-1.58387
-1.58441
-1.58499
-1.5856
-1.58625
-1.58693
-1.58764
-1.58839
-1.58916
-1.58995
-1.59077
-1.59159
-1.59242
-1.59325
-1.59405
-1.59482
-1.59553
-1.59617
-1.59672
-1.59713
-1.57827
-1.57842
-1.57857
-1.57874
-1.57891
-1.5791
-1.5793
-1.57951
-1.57973
-1.57997
-1.58023
-1.5805
-1.58079
-1.5811
-1.58144
-1.58179
-1.58217
-1.58258
-1.58301
-1.58346
-1.58395
-1.58446
-1.58501
-1.58559
-1.58619
-1.58683
-1.5875
-1.58819
-1.58891
-1.58965
-1.5904
-1.59117
-1.59194
-1.59269
-1.59343
-1.59414
-1.59479
-1.59537
-1.59585
-1.59621
-1.5786
-1.57874
-1.57889
-1.57905
-1.57922
-1.5794
-1.57959
-1.57979
-1.58001
-1.58024
-1.58048
-1.58074
-1.58102
-1.58132
-1.58164
-1.58197
-1.58233
-1.58272
-1.58313
-1.58356
-1.58402
-1.5845
-1.58502
-1.58556
-1.58613
-1.58673
-1.58735
-1.588
-1.58867
-1.58935
-1.59006
-1.59076
-1.59147
-1.59217
-1.59285
-1.59349
-1.59408
-1.59461
-1.59504
-1.59536
-1.5789
-1.57904
-1.57919
-1.57934
-1.5795
-1.57967
-1.57985
-1.58005
-1.58026
-1.58048
-1.58071
-1.58096
-1.58123
-1.58151
-1.58181
-1.58214
-1.58248
-1.58284
-1.58323
-1.58364
-1.58407
-1.58453
-1.58502
-1.58553
-1.58606
-1.58662
-1.5872
-1.58781
-1.58843
-1.58907
-1.58972
-1.59038
-1.59103
-1.59168
-1.5923
-1.59289
-1.59342
-1.5939
-1.59429
-1.59456
-1.57918
-1.57931
-1.57945
-1.5796
-1.57976
-1.57992
-1.5801
-1.58029
-1.58048
-1.5807
-1.58092
-1.58116
-1.58141
-1.58169
-1.58197
-1.58228
-1.58261
-1.58295
-1.58332
-1.58371
-1.58412
-1.58455
-1.58501
-1.58549
-1.58599
-1.58651
-1.58706
-1.58762
-1.58821
-1.5888
-1.5894
-1.59001
-1.59062
-1.59121
-1.59178
-1.59232
-1.5928
-1.59323
-1.59358
-1.59381
-1.57944
-1.57957
-1.5797
-1.57984
-1.57999
-1.58015
-1.58032
-1.5805
-1.58069
-1.5809
-1.58111
-1.58134
-1.58158
-1.58184
-1.58212
-1.58241
-1.58272
-1.58305
-1.58339
-1.58376
-1.58415
-1.58456
-1.58499
-1.58544
-1.58591
-1.5864
-1.58692
-1.58744
-1.58799
-1.58854
-1.5891
-1.58966
-1.59022
-1.59077
-1.59129
-1.59178
-1.59222
-1.59261
-1.59291
-1.59312
-1.57968
-1.5798
-1.57993
-1.58007
-1.58021
-1.58037
-1.58053
-1.5807
-1.58088
-1.58108
-1.58128
-1.5815
-1.58174
-1.58198
-1.58224
-1.58252
-1.58282
-1.58313
-1.58346
-1.58381
-1.58417
-1.58456
-1.58497
-1.58539
-1.58583
-1.5863
-1.58678
-1.58727
-1.58778
-1.58829
-1.58881
-1.58933
-1.58985
-1.59035
-1.59083
-1.59128
-1.59168
-1.59202
-1.59229
-1.59247
-1.5799
-1.58001
-1.58014
-1.58027
-1.58041
-1.58056
-1.58071
-1.58088
-1.58106
-1.58124
-1.58144
-1.58165
-1.58187
-1.58211
-1.58236
-1.58262
-1.5829
-1.5832
-1.58351
-1.58384
-1.58419
-1.58456
-1.58494
-1.58534
-1.58576
-1.58619
-1.58664
-1.5871
-1.58757
-1.58805
-1.58854
-1.58902
-1.5895
-1.58996
-1.5904
-1.5908
-1.59117
-1.59148
-1.59172
-1.59186
-1.5801
-1.58021
-1.58033
-1.58046
-1.58059
-1.58073
-1.58089
-1.58104
-1.58121
-1.58139
-1.58158
-1.58178
-1.582
-1.58222
-1.58246
-1.58271
-1.58298
-1.58326
-1.58356
-1.58387
-1.5842
-1.58455
-1.58491
-1.58529
-1.58568
-1.58609
-1.58651
-1.58694
-1.58738
-1.58783
-1.58828
-1.58872
-1.58916
-1.58959
-1.58999
-1.59036
-1.59069
-1.59097
-1.59118
-1.5913
-1.58028
-1.58039
-1.58051
-1.58063
-1.58076
-1.5809
-1.58104
-1.58119
-1.58136
-1.58153
-1.58171
-1.5819
-1.58211
-1.58232
-1.58255
-1.58279
-1.58305
-1.58331
-1.5836
-1.58389
-1.58421
-1.58453
-1.58487
-1.58523
-1.5856
-1.58598
-1.58638