/*--------------------------------*- C++ -*----------------------------------*\
| =========                 |                                                 |
| \\      /  F ield         | OpenFOAM: The Open Source CFD Toolbox           |
|  \\    /   O peration     | Version:  5.x                                   |
|   \\  /    A nd           | Web:      www.OpenFOAM.org                      |
|    \\/     M anipulation  |                                                 |
\*---------------------------------------------------------------------------*/
FoamFile
{
    version     2.0;
    format      ascii;
    class       surfaceScalarField;
    location    "500";
    object      phi;
}
// * * * * * * * * * * * * * * * * * * * * * * * * * * * * * * * * * * * * * //

dimensions      [0 3 -1 0 0 0 0];

internalField   nonuniform List<scalar> 
51690
(
9.23333e-06
-0.000195395
0.00018619
0.00014779
-0.000138557
0.000236494
-8.87035e-05
0.00029156
-5.50655e-05
0.000323884
-3.23239e-05
0.000341589
-1.77055e-05
0.000352731
-1.11416e-05
0.000357719
-4.988e-06
0.000361869
-4.14996e-06
0.000364843
-2.97332e-06
0.000368332
-3.48902e-06
0.000373402
-5.06998e-06
0.000373236
1.66022e-07
0.000379208
-5.97167e-06
0.000385957
-6.74964e-06
0.000391924
-5.96652e-06
0.00039877
-6.84531e-06
0.000406276
-7.50605e-06
0.000414632
-8.35592e-06
0.000423512
-8.88004e-06
0.000433097
-9.58473e-06
0.00044315
-1.00522e-05
0.000453653
-1.05031e-05
0.000464518
-1.08653e-05
0.000475603
-1.10846e-05
0.000486951
-1.13479e-05
0.000498292
-1.13408e-05
0.000509607
-1.13151e-05
0.00052068
-1.10731e-05
0.000531494
-1.0814e-05
0.000541802
-1.0307e-05
0.000551451
-9.64924e-06
0.000560243
-8.79191e-06
0.000567947
-7.70396e-06
0.00057443
-6.48283e-06
0.000579313
-4.88312e-06
0.000582571
-3.25793e-06
0.000583179
-6.07541e-07
0.000578955
4.22405e-06
3.57682e-06
0.000575378
-1.85551e-05
-0.0002644
8.75594e-05
5.79581e-05
-0.000215071
0.000128252
-0.000158997
0.000187446
-0.000114259
0.000233275
-7.81536e-05
0.000268003
-5.24326e-05
0.000294273
-3.74123e-05
0.000313952
-2.4666e-05
0.000329314
-1.95127e-05
0.000341921
-1.55803e-05
0.000352837
-1.44047e-05
0.000363725
-1.59582e-05
0.000372672
-8.78048e-06
0.000382705
-1.6005e-05
0.000392959
-1.70029e-05
0.000403558
-1.65661e-05
0.000414222
-1.75091e-05
0.000425576
-1.88593e-05
0.000437432
-2.0212e-05
0.00044951
-2.0958e-05
0.000462304
-2.23787e-05
0.000475276
-2.30235e-05
0.000488664
-2.38908e-05
0.00050234
-2.45414e-05
0.000516111
-2.48551e-05
0.000530168
-2.54056e-05
0.000544085
-2.52576e-05
0.000557957
-2.51864e-05
0.000571519
-2.46353e-05
0.000584707
-2.40017e-05
0.000597359
-2.29585e-05
0.000609227
-2.15174e-05
0.000620209
-1.97741e-05
0.00062997
-1.74647e-05
0.00063841
-1.49225e-05
0.000645136
-1.16088e-05
0.000649933
-8.05531e-06
0.000652901
-3.57507e-06
0.000652844
4.28111e-06
4.2917e-06
0.000652129
-2.33456e-05
-0.000309328
6.82727e-05
2.88319e-05
-0.000267249
8.59371e-05
-0.000216102
0.000143542
-0.000171864
0.000195406
-0.000130018
0.000239718
-9.67443e-05
0.00027622
-7.39139e-05
0.000305286
-5.37322e-05
0.000328538
-4.2765e-05
0.00034723
-3.42715e-05
0.000362927
-3.01023e-05
0.00037668
-2.97107e-05
0.000389152
-2.12531e-05
0.000400789
-2.76413e-05
0.000412751
-2.89651e-05
0.000424984
-2.87985e-05
0.000437153
-2.9678e-05
0.000449629
-3.13352e-05
0.000462487
-3.30705e-05
0.000475671
-3.41416e-05
0.000489414
-3.61214e-05
0.000503417
-3.70263e-05
0.000517808
-3.82812e-05
0.000532487
-3.92213e-05
0.000547312
-3.96795e-05
0.000562372
-4.04657e-05
0.000577351
-4.02366e-05
0.000592269
-4.01045e-05
0.000606898
-3.92642e-05
0.000621132
-3.82358e-05
0.000634824
-3.66499e-05
0.000647728
-3.44213e-05
0.000659714
-3.17604e-05
0.000670466
-2.82164e-05
0.000679837
-2.42939e-05
0.000687469
-1.924e-05
0.000693126
-1.37122e-05
0.000696471
-6.92039e-06
0.000696635
4.11699e-06
5.6543e-06
0.000695272
-2.11092e-05
-0.00034227
5.4051e-05
1.65105e-05
-0.000304868
6.01481e-05
-0.00025974
0.00010859
-0.000220306
0.000157276
-0.000178704
0.000203475
-0.000142944
0.000245257
-0.000115695
0.00028115
-8.96258e-05
0.000311536
-7.31504e-05
0.000336631
-5.93671e-05
0.000357812
-5.12828e-05
0.000375882
-4.77804e-05
0.000392442
-3.78136e-05
0.000407363
-4.25618e-05
0.000421717
-4.33191e-05
0.000435928
-4.30102e-05
0.00045
-4.37499e-05
0.000464141
-4.54759e-05
0.000478495
-4.74246e-05
0.000493068
-4.87137e-05
0.000508078
-5.1132e-05
0.00052332
-5.22674e-05
0.000538884
-5.38458e-05
0.000554709
-5.50458e-05
0.00057066
-5.56305e-05
0.00058681
-5.66156e-05
0.000602884
-5.63104e-05
0.000618872
-5.60927e-05
0.000634567
-5.49586e-05
0.000649838
-5.35069e-05
0.000664541
-5.13525e-05
0.000678423
-4.83041e-05
0.000691345
-4.46818e-05
0.000702988
-3.98599e-05
0.000713187
-3.44922e-05
0.000721587
-2.76396e-05
0.000727938
-2.00631e-05
0.000731883
-1.08662e-05
0.000732664
3.3362e-06
7.0285e-06
0.00073129
-1.70294e-05
-0.000369676
4.44361e-05
1.29542e-05
-0.000334852
4.75693e-05
-0.000294355
8.74615e-05
-0.000260199
0.000130343
-0.000221585
0.000174304
-0.000186905
0.000217308
-0.000158699
0.000256976
-0.000129294
0.000292682
-0.000108856
0.000323449
-9.01346e-05
0.000350087
-7.79203e-05
0.000372711
-7.04042e-05
0.000393514
-5.86168e-05
0.000412158
-6.12059e-05
0.000429501
-6.06615e-05
0.00044599
-5.94998e-05
0.00046214
-5.98993e-05
0.000478078
-6.14138e-05
0.00049401
-6.33562e-05
0.000510025
-6.47295e-05
0.000526311
-6.74171e-05
0.00054277
-6.87269e-05
0.000559476
-7.05512e-05
0.000576389
-7.19589e-05
0.000593403
-7.26442e-05
0.000610563
-7.37758e-05
0.000627638
-7.33853e-05
0.000644598
-7.30525e-05
0.000661251
-7.16121e-05
0.000677457
-6.97127e-05
0.000693067
-6.69627e-05
0.000707834
-6.30712e-05
0.000721598
-5.84452e-05
0.000734043
-5.2305e-05
0.000744975
-4.54238e-05
0.000754043
-3.67082e-05
0.000760977
-2.69968e-05
0.000765416
-1.53048e-05
0.000766711
2.04036e-06
8.32337e-06
0.000765416
-1.29989e-05
-0.000393982
3.73043e-05
1.27493e-05
-0.0003606
4.17675e-05
-0.000323374
7.52643e-05
-0.000293695
0.000112423
-0.000258744
0.000152398
-0.00022688
0.00019384
-0.000200141
0.000234433
-0.000169887
0.000273124
-0.000147547
0.000308098
-0.000125109
0.000339492
-0.000109314
0.000366592
-9.75036e-05
0.000391762
-8.37868e-05
0.000414442
-8.38861e-05
0.000435262
-8.14811e-05
0.000454453
-7.86913e-05
0.000473003
-7.84488e-05
0.000491008
-7.94185e-05
0.000508759
-8.11074e-05
0.000526425
-8.23954e-05
0.000544154
-8.51457e-05
0.000561972
-8.65457e-05
0.000579936
-8.85146e-05
0.000598034
-9.00573e-05
0.00061619
-9.07994e-05
0.000634425
-9.20115e-05
0.000652553
-9.15131e-05
0.000670526
-9.10251e-05
0.000688164
-8.92503e-05
0.000705319
-8.68675e-05
0.000721838
-8.34819e-05
0.00073748
-7.87127e-05
0.000752069
-7.30343e-05
0.000765296
-6.55317e-05
0.000776941
-5.70687e-05
0.000786653
-4.64207e-05
0.000794139
-3.4483e-05
0.000799033
-2.01978e-05
0.000800761
3.11786e-07
9.51369e-06
0.000799571
-9.18596e-06
-0.000416455
3.16594e-05
1.41514e-05
-0.000383938
3.97908e-05
-0.000349013
6.89348e-05
-0.000322839
0.00010148
-0.000291289
0.000137328
-0.000262728
0.000175903
-0.000238717
0.000215445
-0.000209428
0.000254991
-0.000187094
0.000292422
-0.00016254
0.000327369
-0.000144261
0.000358366
-0.000128501
0.000387671
-0.000113092
0.00041445
-0.000110666
0.000439057
-0.000106087
0.000461339
-0.000100973
0.000482656
-9.97661e-05
0.000503048
-9.98108e-05
0.000522906
-0.000100965
0.000542476
-0.000101966
0.00056186
-0.00010453
0.000581219
-0.000105905
0.000600594
-0.000107889
0.000620009
-0.000109472
0.000639418
-0.000110209
0.000658827
-0.000111421
0.000678093
-0.000110779
0.000697152
-0.000110084
0.000715839
-0.000107938
0.000734
-0.000105028
0.000751473
-0.000100956
0.000768023
-9.5262e-05
0.000783459
-8.84709e-05
0.000797478
-7.95502e-05
0.00080984
-6.94308e-05
0.000820194
-5.67744e-05
0.000828225
-4.25142e-05
0.000833557
-2.55295e-05
0.000835666
-1.79731e-06
1.05954e-05
0.000834584
-5.63499e-06
-0.000437854
2.70331e-05
1.63318e-05
-0.000405904
3.9977e-05
-0.000372658
6.63232e-05
-0.000349186
9.55377e-05
-0.000320503
0.0001279
-0.00029509
0.000163388
-0.000274205
0.000200881
-0.000246921
0.00023977
-0.000225982
0.000278066
-0.000200837
0.000315179
-0.000181373
0.000349149
-0.00016247
0.000381991
-0.000145934
0.000412613
-0.000141287
0.000441047
-0.000134522
0.000466654
-0.000126581
0.000491039
-0.000124151
0.000514122
-0.000122893
0.000536375
-0.000123217
0.000558123
-0.000123714
0.000579405
-0.000125812
0.000600522
-0.000127021
0.000621496
-0.000128864
0.000642391
-0.000130366
0.000663198
-0.000131016
0.000683905
-0.000132127
0.000704416
-0.00013129
0.000724654
-0.000130323
0.000744474
-0.000127757
0.000763716
-0.00012427
0.000782212
-0.000119452
0.000799729
-0.000112779
0.000816062
-0.000104804
0.00083091
-9.43981e-05
0.000844016
-8.2537e-05
0.000855028
-6.7786e-05
0.000863614
-5.10995e-05
0.000869384
-3.12999e-05
0.000871846
-4.25931e-06
1.15672e-05
0.000870874
-2.3175e-06
-0.000458658
2.31223e-05
1.89103e-05
-0.000427132
4.14287e-05
-0.000395177
6.60662e-05
-0.000373823
9.30541e-05
-0.000347491
0.000122803
-0.000324838
0.000155592
-0.000306995
0.00019081
-0.000282139
0.000228229
-0.000263401
0.000266237
-0.000238845
0.000304263
-0.0002194
0.000340166
-0.000198373
0.000375702
-0.00018147
0.000409611
-0.000175196
0.000441622
-0.000166533
0.000470579
-0.000155538
0.000498196
-0.000151768
0.000524205
-0.000148903
0.000549114
-0.000148126
0.000573303
-0.000147903
0.00059673
-0.000149239
0.000619833
-0.000150124
0.000642612
-0.000151643
0.00066517
-0.000152924
0.000687542
-0.000153388
0.000709692
-0.000154277
0.000731578
-0.000153176
0.000753111
-0.000151855
0.000774162
-0.000148808
0.000794574
-0.000144682
0.000814173
-0.000139052
0.00083273
-0.000131335
0.000850023
-0.000122098
0.000865755
-0.00011013
0.000879649
-9.64312e-05
0.000891351
-7.94883e-05
0.000900513
-6.02614e-05
0.000906735
-3.75214e-05
0.00090954
-7.065e-06
1.24258e-05
0.000908682
8.10437e-07
-0.000479198
1.97287e-05
2.17083e-05
-0.00044803
4.36582e-05
-0.000417127
6.73278e-05
-0.000397493
9.29342e-05
-0.000373098
0.000120893
-0.000352798
0.000151604
-0.000337705
0.000184784
-0.000315319
0.000220503
-0.000299121
0.000257577
-0.000275919
0.000295596
-0.000257419
0.0003325
-0.000235277
0.000369826
-0.000218796
0.000406289
-0.000211659
0.000441389
-0.000201632
0.000473502
-0.000187651
0.000504335
-0.000182601
0.000533388
-0.000177956
0.000561138
-0.000175877
0.00058799
-0.000174755
0.000613791
-0.00017504
0.000639107
-0.00017544
0.000663904
-0.000176439
0.00068832
-0.000177341
0.000712433
-0.0001775
0.000736185
-0.000178029
0.000759592
-0.000176583
0.000782549
-0.000174812
0.000804948
-0.000171207
0.000826632
-0.000166367
0.000847426
-0.000159845
0.000867104
-0.000151013
0.000885431
-0.000140425
0.000902111
-0.000126809
0.000916848
-0.000111168
0.000929285
-9.19253e-05
0.000939057
-7.00327e-05
0.000945752
-4.42163e-05
0.000948905
-1.0218e-05
1.31645e-05
0.000948166
3.7902e-06
-0.000499708
1.67206e-05
2.46411e-05
-0.000468881
4.63988e-05
-0.000438884
6.9607e-05
-0.000420701
9.44483e-05
-0.000397939
0.000121295
-0.000379645
0.000150562
-0.000366972
0.000182153
-0.00034691
0.000216317
-0.000333285
0.000252244
-0.000311845
0.000289722
-0.000294897
0.000326935
-0.00027249
0.000365259
-0.00025712
0.000403512
-0.000249912
0.000441072
-0.000239193
0.000475972
-0.00022255
0.000509827
-0.000216456
0.000541896
-0.000210024
0.000572571
-0.000206552
0.000602234
-0.000204418
0.000630599
-0.000203405
0.000658331
-0.000203172
0.000685349
-0.000203457
0.000711819
-0.000203811
0.000737857
-0.000203539
0.000763379
-0.000203551
0.000788462
-0.000201666
0.000812982
-0.000199332
0.000836856
-0.00019508
0.000859929
-0.00018944
0.000882019
-0.000181935
0.00090291
-0.000171905
0.000922353
-0.000159867
0.000940053
-0.000144509
0.000955696
-0.000126811
0.00096892
-0.00010515
0.000979342
-8.04549e-05
0.000986541
-5.14146e-05
0.000990055
-1.37324e-05
1.37731e-05
0.000989447
6.65589e-06
-0.000520371
1.40073e-05
2.76675e-05
-0.000489893
4.94998e-05
-0.000460716
7.26027e-05
-0.000443804
9.71246e-05
-0.000422461
0.000123384
-0.000405904
0.000151764
-0.000395352
0.000182259
-0.000377405
0.000215203
-0.000366228
0.000250064
-0.000346706
0.000286806
-0.000331639
0.00032392
-0.000309604
0.000362658
-0.000295858
0.00040203
-0.000289283
0.000441404
-0.000278567
0.000478621
-0.000259768
0.000515166
-0.000253001
0.000550085
-0.000244943
0.000583649
-0.000240116
0.000616182
-0.00023695
0.000647236
-0.000234459
0.000677546
-0.000233482
0.000706964
-0.000232875
0.000735671
-0.000232519
0.000763815
-0.000231682
0.000791278
-0.000231014
0.000818196
-0.000228584
0.000844426
-0.000225562
0.000869909
-0.000220563
0.000894493
-0.000214024
0.000917992
-0.000205434
0.000940197
-0.00019411
0.000960844
-0.000180513
0.000979644
-0.000163309
0.000996261
-0.000143429
0.00101033
-0.000119221
0.00102145
-9.15761e-05
0.00102919
-5.91528e-05
0.00103309
-1.7629e-05
1.42379e-05
0.00103262
9.43513e-06
-0.000541331
1.15248e-05
3.07682e-05
-0.000511226
5.28743e-05
-0.000482823
7.6132e-05
-0.000467062
0.000100661
-0.00044699
0.000126731
-0.000431974
0.000154677
-0.000423298
0.000184534
-0.000407262
0.000216653
-0.000398347
0.000250695
-0.000380748
0.000286745
-0.00036769
0.000323598
-0.000346456
0.000362405
-0.000334665
0.000402398
-0.000329276
0.000443019
-0.000319187
0.000482073
-0.000298822
0.000520901
-0.000291829
0.0005584
-0.000282443
0.000594709
-0.000276425
0.000630068
-0.00027231
0.000663863
-0.000268254
0.000696855
-0.000266473
0.000728814
-0.000264834
0.000759918
-0.000263623
0.000790334
-0.000262098
0.000819903
-0.000260583
0.000848815
-0.000257496
0.000876906
-0.000253653
0.000904139
-0.000247796
0.000930362
-0.000240247
0.000955387
-0.000230459
0.000979014
-0.000217737
0.00100096
-0.000202459
0.00102095
-0.000183294
0.00103861
-0.000161096
0.0010536
-0.000134204
0.00106547
-0.000103449
0.00107379
-6.74724e-05
0.00107809
-2.19355e-05
1.4542e-05
0.00107779
1.21501e-05
-0.000562708
9.22648e-06
3.3935e-05
-0.000533011
5.64712e-05
-0.000505359
8.00821e-05
-0.000490672
0.000104866
-0.000471774
0.000131049
-0.000458157
0.000158922
-0.00045117
0.000188529
-0.000436869
0.000220208
-0.000430027
0.000253742
-0.000414282
0.000289289
-0.000403237
0.000325903
-0.000383071
0.000364641
-0.000373403
0.000404952
-0.000369587
0.000446393
-0.000360628
0.00048686
-0.000339289
0.00052756
-0.000332529
0.000567317
-0.0003222
0.000606147
-0.000315256
0.000644205
-0.000310367
0.000680714
-0.000304762
0.000716426
-0.000302185
0.000751018
-0.000299427
0.000784645
-0.000297249
0.000817476
-0.000294929
0.000849301
-0.000292408
0.00088036
-0.000288555
0.00091046
-0.000283753
0.000939583
-0.000276918
0.000967578
-0.000268243
0.000994251
-0.000257132
0.00101941
-0.000242898
0.00104276
-0.000225807
0.00106402
-0.000204555
0.00108282
-0.000179893
0.00109878
-0.000150167
0.00111146
-0.000116132
0.00112041
-7.64189e-05
0.00112516
-2.66835e-05
1.46655e-05
0.00112504
1.48185e-05
-0.000584604
7.07789e-06
3.71653e-05
-0.000555357
6.02599e-05
-0.000528453
8.4382e-05
-0.000514795
0.000109614
-0.000497006
0.000136146
-0.000484689
0.00016423
-0.000479254
0.000193909
-0.000466549
0.000225492
-0.00046161
0.000258835
-0.000447625
0.000294132
-0.000438533
0.000330645
-0.000419584
0.000369335
-0.000412093
0.000409836
-0.000410088
0.00045183
-0.000402623
0.000493387
-0.000380845
0.000535599
-0.000374741
0.000577288
-0.000363889
0.000618379
-0.000356347
0.000658947
-0.000350935
0.000698078
-0.000343893
0.000736485
-0.000340592
0.000773749
-0.000336691
0.00080998
-0.000333481
0.000845339
-0.000330287
0.000879553
-0.000326623
0.000912898
-0.0003219
0.000945147
-0.000316002
0.000976298
-0.000308069
0.0010062
-0.000298142
0.00103464
-0.000285578
0.00106145
-0.000269708
0.00108631
-0.000250663
0.00110894
-0.000227188
0.00112895
-0.000199904
0.00114597
-0.000167183
0.00115952
-0.000129686
0.00116914
-8.60415e-05
0.00117437
-3.19089e-05
1.45862e-05
0.00117445
1.74547e-05
-0.000607112
5.05309e-06
4.04596e-05
-0.000578362
6.42219e-05
-0.000552216
8.89864e-05
-0.000539559
0.000114822
-0.000522841
0.000141894
-0.000511761
0.000170417
-0.000507777
0.000200431
-0.000496563
0.000232211
-0.00049339
0.000265659
-0.000481073
0.000300976
-0.00047385
0.000337585
-0.000456193
0.00037635
-0.000450858
0.000417048
-0.000450787
0.000459476
-0.000445051
0.000501917
-0.000423285
0.000545367
-0.000418191
0.000588704
-0.000407227
0.000631795
-0.000399438
0.000674655
-0.000393795
0.000716271
-0.000385509
0.000757296
-0.000381617
0.00079722
-0.000376615
0.000836097
-0.000372357
0.000874059
-0.000368249
0.000910768
-0.000363332
0.000946519
-0.000357651
0.000981047
-0.00035053
0.00101436
-0.000341379
0.00104629
-0.000330073
0.00107663
-0.00031592
0.0011052
-0.000298283
0.00113168
-0.000277134
0.00115578
-0.00025129
0.00117709
-0.000221216
0.00119524
-0.000185329
0.00120973
-0.000144176
0.00122008
-9.63922e-05
0.00122582
-3.765e-05
1.42799e-05
0.00122612
2.00702e-05
-0.000630315
3.13225e-06
4.382e-05
-0.000602112
6.83468e-05
-0.000576743
9.38663e-05
-0.000565079
0.000120439
-0.000549414
0.000148206
-0.000539529
0.000177356
-0.000536927
0.000207923
-0.000527129
0.000240149
-0.000525615
0.000273962
-0.000514887
0.000309559
-0.000509446
0.000346482
-0.000493116
0.000385502
-0.000489877
0.000426497
-0.000491782
0.000469357
-0.000487911
0.000512587
-0.000466515
0.0005571
-0.000462704
0.000601869
-0.000451996
0.000646733
-0.000444302
0.000691671
-0.000438732
0.000735613
-0.000429452
0.000779145
-0.000425149
0.000821677
-0.000419147
0.000863199
-0.000413879
0.000903806
-0.000408856
0.000943087
-0.000402613
0.000981343
-0.000395907
0.00101826
-0.000387449
0.00105385
-0.000376967
0.00108794
-0.000364159
0.0011203
-0.000348277
0.00115075
-0.000328739
0.00117895
-0.000305328
0.00120462
-0.000276962
0.00122732
-0.000243919
0.00124668
-0.000204685
0.00126217
-0.000159668
0.0012733
-0.000107526
0.0012796
-4.39476e-05
1.37206e-05
0.00128016
2.26749e-05
-0.00065429
1.3001e-06
4.725e-05
-0.000626687
7.2629e-05
-0.000602122
9.9004e-05
-0.000591454
0.000126428
-0.000576837
0.000155026
-0.000568127
0.000184961
-0.000566862
0.000216263
-0.000558432
0.000249145
-0.000558496
0.000283553
-0.000549295
0.000319667
-0.000545561
0.000357123
-0.000530572
0.0003966
-0.000529354
0.000438048
-0.00053323
0.00048142
-0.000531283
0.000525435
-0.00051053
0.000570932
-0.000508201
0.000616994
-0.000498058
0.000663459
-0.000490768
0.00071029
-0.000485564
0.000756404
-0.000475565
0.000802314
-0.000471059
0.000847375
-0.000464208
0.000891511
-0.000458015
0.000934772
-0.000452117
0.000976675
-0.000444516
0.00101751
-0.000436742
0.00105692
-0.000426857
0.00109489
-0.000414943
0.00113125
-0.000400513
0.00116574
-0.000382766
0.00119818
-0.000361188
0.00122821
-0.000335353
0.00125555
-0.000304304
0.00127974
-0.000268105
0.00130038
-0.00022533
0.00131695
-0.000176232
0.00132892
-0.000119498
0.00133581
-5.08439e-05
1.28812e-05
0.00133665
2.52766e-05
-0.000679111
-4.5519e-07
5.07531e-05
-0.000652164
7.70666e-05
-0.000628435
0.000104389
-0.000618776
0.000132768
-0.000605216
0.000162315
-0.000597674
0.000193173
-0.00059772
0.000225368
-0.000590626
0.000259086
-0.000592215
0.000294287
-0.000584496
0.000331135
-0.000582408
0.000369329
-0.000568766
0.00040947
-0.000569496
0.000451552
-0.000575311
0.000495572
-0.000575303
0.000540437
-0.000555395
0.000586916
-0.00055468
0.000634209
-0.00054535
0.000682167
-0.000538726
0.000730753
-0.000534149
0.000778903
-0.000523715
0.000827071
-0.000519227
0.000874571
-0.000511708
0.000921269
-0.000504713
0.000967169
-0.000498017
0.00101172
-0.000489065
0.00105518
-0.000480209
0.00109716
-0.00046883
0.00113761
-0.000455398
0.00117634
-0.000439238
0.00121306
-0.000419493
0.00124761
-0.000395737
0.00127957
-0.000367313
0.00130868
-0.000333414
0.00133444
-0.000293865
0.00135646
-0.000247346
0.00137416
-0.000193937
0.00138703
-0.000132367
0.00139457
-5.83824e-05
1.17338e-05
0.00139572
2.78823e-05
-0.000704851
-2.1428e-06
5.43336e-05
-0.000678615
8.166e-05
-0.000655761
0.000110016
-0.000647132
0.000139446
-0.000634646
0.000170049
-0.000628277
0.000201953
-0.000629624
0.00023518
-0.000623853
0.000269895
-0.00062693
0.000306064
-0.000620665
0.000343835
-0.00062018
0.00038296
-0.000607891
0.000423965
-0.000610501
0.000466871
-0.000618217
0.000511702
-0.000620135
0.000557527
-0.00060122
0.000605049
-0.000602201
0.000653576
-0.000593878
0.000702983
-0.000588133
0.000753238
-0.000584404
0.000803328
-0.000573805
0.000853649
-0.000569548
0.000903502
-0.000561561
0.000952704
-0.000553915
0.00100121
-0.000546524
0.00104841
-0.000536267
0.00109454
-0.000526339
0.00113914
-0.000513426
0.00118215
-0.00049841
0.00122334
-0.000480424
0.0012624
-0.000458557
0.00129915
-0.000432488
0.00133315
-0.00040131
0.00136412
-0.000364388
0.00139155
-0.000321287
0.00141502
-0.000270814
0.00143393
-0.000212854
0.00144776
-0.00014619
0.00145598
-6.66064e-05
1.02499e-05
0.00145746
3.04976e-05
-0.000731578
-3.76983e-06
5.79956e-05
-0.000706113
8.64109e-05
-0.000684177
0.000115884
-0.000676606
0.000146455
-0.000665218
0.000178215
-0.000660037
0.000211277
-0.000662685
0.000245661
-0.000658238
0.000281515
-0.000662784
0.00031881
-0.00065796
0.000357678
-0.000659047
0.000397909
-0.000648122
0.000439967
-0.00065256
0.000483885
-0.000662135
0.000529705
-0.000665955
0.000576629
-0.000648144
0.000625296
-0.000650868
0.000675114
-0.000643695
0.000725979
-0.000638998
0.000777872
-0.000636297
0.000829845
-0.000625778
0.000882247
-0.00062195
0.000934385
-0.000613699
0.000986035
-0.000605566
0.00103712
-0.000597604
0.00108696
-0.000586116
0.00113578
-0.000575153
0.00118304
-0.00056069
0.00122867
-0.000544043
0.0012724
-0.00052415
0.00131389
-0.000500049
0.00135294
-0.000471535
0.00138907
-0.000437439
0.001422
-0.000397321
0.00145117
-0.000350462
0.00147617
-0.000295814
0.00149637
-0.000233053
0.00151121
-0.000161025
0.00152016
-7.55597e-05
8.40106e-06
0.00152201
3.31275e-05
-0.000759364
-5.34179e-06
6.17434e-05
-0.000734729
9.13228e-05
-0.000713756
0.000121993
-0.000707276
0.000153793
-0.000697017
0.000186805
-0.000693048
0.00022113
-0.000697011
0.00025679
-0.000693898
0.000293913
-0.000699907
0.000332476
-0.000696523
0.000372598
-0.000699169
0.000414098
-0.000689622
0.000457387
-0.000695848
0.0005025
-0.000707249
0.000549488
-0.000712942
0.000597666
-0.000696322
0.000647609
-0.000700811
0.000698811
-0.000694897
0.000751189
-0.000691377
0.000804737
-0.000689845
0.00085858
-0.000679621
0.000913027
-0.000676397
0.000967403
-0.000668075
0.00102146
-0.000659623
0.00107508
-0.000651225
0.00112757
-0.000638603
0.00117908
-0.000626659
0.00122904
-0.000610655
0.00127735
-0.000592349
0.00132368
-0.000570484
0.00136768
-0.000544047
0.00140911
-0.000512965
0.00144746
-0.000475791
0.00148244
-0.000432302
0.00151346
-0.000381474
0.00154007
-0.000322426
0.00156162
-0.000254604
0.00157752
-0.000176929
0.00158725
-8.52848e-05
6.15961e-06
0.00158949
3.57763e-05
-0.000788277
-6.86292e-06
6.55817e-05
-0.000764534
9.63998e-05
-0.000744574
0.000128348
-0.000739224
0.000161462
-0.000730131
0.000195817
-0.000727404
0.000231508
-0.000732702
0.000268553
-0.000730942
0.000307068
-0.000738421
0.000347033
-0.000736488
0.000388554
-0.00074069
0.000431476
-0.000732544
0.000476159
-0.000740531
0.000522643
-0.000753733
0.000570977
-0.000761276
0.000620568
-0.000745913
0.000671936
-0.000752179
0.000724644
-0.000747604
0.000778625
-0.000745359
0.000833885
-0.000745104
0.000889623
-0.000735359
0.000946115
-0.000732889
0.00100271
-0.000724675
0.00105916
-0.000716067
0.0011153
-0.000707367
0.00117042
-0.000693724
0.00122463
-0.000680866
0.00127732
-0.00066335
0.00132835
-0.000643373
0.00137735
-0.000619487
0.00142393
-0.000590625
0.00146782
-0.00055686
0.00150848
-0.000516452
0.0015456
-0.000469416
0.00157853
-0.000414407
0.00160683
-0.000350724
0.0016298
-0.000277573
0.00164683
-0.000193959
0.00165737
-9.58234e-05
3.49846e-06
0.00166003
3.84481e-05
-0.000818389
-8.33653e-06
6.95149e-05
-0.000795601
0.000101647
-0.000776707
0.000134952
-0.000772529
0.000169465
-0.000764644
0.000205256
-0.000763195
0.000242411
-0.000769856
0.000280947
-0.000769479
0.00032097
-0.000778444
0.000362463
-0.000777981
0.00040552
-0.000783747
0.000450007
-0.000777031
0.000496242
-0.000786766
0.000544262
-0.000801753
0.000594115
-0.000811129
0.000645285
-0.000797082
0.000698235
-0.000805129
0.000752585
-0.000801955
0.000808286
-0.000801059
0.000865345
-0.000802163
0.000923039
-0.000793054
0.00098161
-0.000791459
0.00104045
-0.000783514
0.00109928
-0.000774899
0.00115794
-0.000766028
0.0012157
-0.000751484
0.00127262
-0.000737787
0.00132807
-0.000718802
0.00138186
-0.000697156
0.00143358
-0.000671212
0.00148281
-0.000639851
0.00152924
-0.000603292
0.00157229
-0.000559502
0.00161162
-0.000508745
0.00164655
-0.000449341
0.00167661
-0.000380784
0.00170107
-0.000302028
0.00171928
-0.000212169
0.00173067
-0.000107216
3.92012e-07
0.00173378
4.11466e-05
-0.00084977
-9.76525e-06
7.35481e-05
-0.000828003
0.000107071
-0.000810229
0.000141813
-0.000807271
0.00017781
-0.000800641
0.000215127
-0.000800513
0.000253843
-0.000808571
0.000293975
-0.000809611
0.000335619
-0.000820088
0.000378761
-0.000821124
0.000423486
-0.000828472
0.000469676
-0.000823221
0.000517612
-0.000834702
0.000567328
-0.000851469
0.000618867
-0.000862669
0.000671777
-0.000849992
0.00072647
-0.000859822
0.000782614
-0.000858099
0.000840167
-0.000858612
0.00089914
-0.000861137
0.000958877
-0.000852791
0.00101959
-0.000852174
0.00108071
-0.000844634
0.00114196
-0.000836149
0.00120316
-0.000827226
0.00126358
-0.0008119
0.00132323
-0.000797442
0.00138147
-0.000777041
0.00143805
-0.000753739
0.00149256
-0.000725713
0.00154449
-0.000691786
0.00159353
-0.000652333
0.00163905
-0.000605018
0.00168067
-0.000550366
0.00171768
-0.000486352
0.00174957
-0.000412678
0.00177558
-0.000328031
0.00179502
-0.000231612
0.0018073
-0.000119499
-3.18386e-06
0.00181088
4.38754e-05
-0.000882494
-1.11512e-05
7.76866e-05
-0.000861814
0.000112678
-0.00084522
0.00014894
-0.000843533
0.000186507
-0.000838208
0.000225441
-0.000839447
0.000265814
-0.000848945
0.000307646
-0.000851443
0.000351022
-0.000863464
0.000395932
-0.000866034
0.000442452
-0.000874992
0.000490477
-0.000871246
0.000540258
-0.000884483
0.000591824
-0.000903034
0.000645213
-0.000916058
0.000700023
-0.000904802
0.000756623
-0.000916422
0.000814717
-0.000916193
0.000874268
-0.000918163
0.000935286
-0.000922155
0.000997177
-0.000914682
0.00106013
-0.000915123
0.0011236
-0.000908108
0.00118732
-0.00089987
0.0012511
-0.000891003
0.00131421
-0.000875009
0.00137663
-0.000859865
0.0014377
-0.000838106
0.00149712
-0.000813167
0.00155445
-0.000783042
0.00160916
-0.000746492
0.00166088
-0.00070405
0.00170893
-0.000653073
0.00175292
-0.000594353
0.00179208
-0.000525514
0.00182588
-0.000446474
0.00185349
-0.000355646
0.00187422
-0.000252339
0.00188743
-0.000132711
-7.25114e-06
0.0018915
4.66381e-05
-0.000916636
-1.24961e-05
8.19361e-05
-0.000897112
0.000118475
-0.00088176
0.00015634
-0.000881397
0.000195565
-0.000877433
0.000236209
-0.00088009
0.000278338
-0.000891073
0.000321973
-0.000895078
0.000367191
-0.000908683
0.000413987
-0.00091283
0.000462427
-0.000923432
0.000512418
-0.000921238
0.000564185
-0.00093625
0.00061775
-0.000956599
0.000673147
-0.000971455
0.000730018
-0.000961673
0.000788687
-0.000975091
0.000848891
-0.000976397
0.000910595
-0.000979866
0.000973804
-0.000985364
0.00103798
-0.000978855
0.00110327
-0.000980419
0.00116919
-0.000974027
0.00123546
-0.00096614
0.00130188
-0.000957422
0.00136774
-0.000940865
0.00143298
-0.000925106
0.00149692
-0.000902045
0.00155924
-0.000875491
0.00161945
-0.000843255
0.00167699
-0.000804033
0.00173146
-0.000758512
0.00178212
-0.00070374
0.00182855
-0.000640781
0.00186994
-0.000566901
0.0019057
-0.00048224
0.00193499
-0.000384933
0.00195705
-0.0002744
0.00197122
-0.000146884
-1.18298e-05
0.0019758
4.94385e-05
-0.000952274
-1.38014e-05
8.63024e-05
-0.000933976
0.000124472
-0.00091993
0.000164026
-0.000920951
0.000204998
-0.000918406
0.000247446
-0.000922537
0.00029143
-0.000935057
0.000336972
-0.000940621
0.000384145
-0.000955855
0.000432943
-0.000961627
0.000483427
-0.000973916
0.000535515
-0.000973326
0.000589406
-0.000990141
0.000645119
-0.00101231
0.00070268
-0.00102902
0.000761769
-0.00102076
0.000822672
-0.00103599
0.000885149
-0.00103887
0.000949164
-0.00104388
0.00101472
-0.00105092
0.00108131
-0.00104545
0.00114909
-0.00104819
0.00121757
-0.00104251
0.00128648
-0.00103506
0.00135563
-0.00102657
0.0014243
-0.00100954
0.00149243
-0.000993227
0.0015593
-0.00096892
0.00162458
-0.000940773
0.00168774
-0.000906415
0.00174818
-0.000864473
0.00180546
-0.000815786
0.00185881
-0.00075709
0.00190775
-0.000689721
0.00195143
-0.000610582
0.00198923
-0.000520042
0.00202025
-0.000415948
0.00204369
-0.000297841
0.00205885
-0.00016205
-1.69371e-05
0.00206396
5.22804e-05
-0.000989486
-1.50684e-05
9.07921e-05
-0.000972487
0.000130677
-0.000959815
0.000172008
-0.000962282
0.000214821
-0.000961219
0.000259168
-0.000966885
0.000305109
-0.000980998
0.000352666
-0.000988178
0.000401905
-0.00100509
0.000452823
-0.00101255
0.000505477
-0.00102657
0.000559792
-0.00102764
0.000615946
-0.00104629
0.000673952
-0.00107032
0.000733832
-0.0010889
0.000795297
-0.00108223
0.000858597
-0.00109929
0.000923513
-0.00110379
0.000990004
-0.00111037
0.00105806
-0.00111898
0.00112724
-0.00111462
0.00119763
-0.00111858
0.0012688
-0.00111368
0.00134048
-0.00110674
0.00141245
-0.00109854
0.00148404
-0.00108113
0.00155513
-0.00106431
0.00162501
-0.00103881
0.00169333
-0.00100908
0.0017595
-0.000972593
0.00182292
-0.000927887
0.00188308
-0.000875946
0.00193918
-0.000813197
0.00199071
-0.000741245
0.00203676
-0.000656628
0.00207666
-0.000559945
0.00210946
-0.000448751
0.00213433
-0.000322708
0.00215052
-0.000178239
-2.25882e-05
0.00215617
5.51678e-05
-0.00102835
-1.62984e-05
9.54122e-05
-0.00101273
0.000137101
-0.0010015
0.000180301
-0.00100548
0.000225049
-0.00100597
0.000271396
-0.00101323
0.000319398
-0.001029
0.000369078
-0.00103786
0.000420498
-0.00105651
0.000473657
-0.00106571
0.000528606
-0.00108152
0.00058528
-0.00108431
0.000643835
-0.00110485
0.000704281
-0.00113076
0.000766635