/*--------------------------------*- C++ -*----------------------------------*\
| =========                 |                                                 |
| \\      /  F ield         | OpenFOAM: The Open Source CFD Toolbox           |
|  \\    /   O peration     | Version:  5.x                                   |
|   \\  /    A nd           | Web:      www.OpenFOAM.org                      |
|    \\/     M anipulation  |                                                 |
\*---------------------------------------------------------------------------*/
FoamFile
{
    version     2.0;
    format      ascii;
    class       volVectorField;
    location    "500";
    object      U;
}
// * * * * * * * * * * * * * * * * * * * * * * * * * * * * * * * * * * * * * //

dimensions      [0 1 -1 0 0 0 0];

internalField   nonuniform List<vector> 
26000
(
(0.557771 1.31348e-22 -0.225911)
(0.540695 -1.57196e-22 0.204527)
(0.605612 7.87303e-20 0.515619)
(0.715592 -1.02087e-19 0.707556)
(0.839258 1.46572e-19 0.806295)
(0.958444 2.48302e-19 0.843661)
(1.0662 0 0.847904)
(1.16065 0 0.831279)
(1.24069 0 0.803692)
(1.30879 6.13979e-19 0.771336)
(1.36529 -6.73589e-19 0.736363)
(1.4145 0 0.704581)
(1.45355 0 0.665315)
(1.485 -5.37016e-19 0.626469)
(1.51401 -1.63588e-20 0.595402)
(1.5405 5.42261e-19 0.564739)
(1.56125 0 0.53299)
(1.57859 -1.11142e-18 0.501734)
(1.593 0 0.472418)
(1.60505 0 0.444444)
(1.6155 0 0.417579)
(1.62366 -5.44662e-19 0.392026)
(1.63047 2.14414e-18 0.367374)
(1.63583 -5.26717e-19 0.34384)
(1.63968 -7.77921e-21 0.321191)
(1.64259 0 0.299498)
(1.64417 -5.06803e-19 0.278836)
(1.64494 9.97747e-19 0.258904)
(1.64469 -1.46776e-18 0.239789)
(1.6436 -9.67536e-19 0.221438)
(1.64186 9.50243e-19 0.203812)
(1.6393 0 0.18686)
(1.63614 0 0.170459)
(1.63209 -1.37773e-18 0.154684)
(1.62743 -2.1833e-22 0.13944)
(1.62205 4.5171e-19 0.124807)
(1.61563 2.24961e-19 0.110522)
(1.60973 1.09933e-19 0.0971606)
(1.59577 9.96538e-19 0.0826201)
(1.58369 2.60529e-21 0.0711759)
(0.734381 0 -0.14794)
(0.680124 5.25861e-21 0.0300799)
(0.694725 1.94491e-20 0.21868)
(0.763949 -9.73389e-20 0.377395)
(0.862785 -9.94982e-20 0.495101)
(0.971053 -1.64873e-19 0.573605)
(1.07727 2.71523e-19 0.621488)
(1.17564 -1.01204e-19 0.643773)
(1.26226 -4.93207e-19 0.64929)
(1.33692 -6.19636e-19 0.642588)
(1.39994 6.67578e-19 0.627821)
(1.45285 0 0.610809)
(1.49913 3.68551e-19 0.586858)
(1.53699 -3.64044e-19 0.563981)
(1.56981 0 0.540236)
(1.59897 -4.0393e-19 0.514896)
(1.62393 -1.0762e-20 0.49005)
(1.64513 4.03616e-19 0.465277)
(1.66286 0 0.441327)
(1.67804 8.11489e-19 0.417477)
(1.69086 4.13332e-19 0.394313)
(1.70157 -4.02712e-19 0.37198)
(1.71052 0 0.350027)
(1.71784 7.93696e-19 0.328901)
(1.72374 -9.65392e-21 0.308286)
(1.72848 0 0.288383)
(1.73215 -7.65623e-19 0.269114)
(1.73487 -7.58948e-19 0.250243)
(1.73663 7.55213e-19 0.231931)
(1.73748 0 0.214157)
(1.73756 -3.72232e-19 0.196926)
(1.73685 3.60836e-19 0.180206)
(1.73545 0 0.163935)
(1.7333 0 0.148168)
(1.73048 -3.52289e-19 0.132848)
(1.72698 -3.5114e-19 0.117997)
(1.72279 0 0.103436)
(1.71772 -7.03987e-19 0.0896288)
(1.71325 -2.80066e-21 0.0746623)
(1.70863 2.48901e-21 0.0639411)
(0.875649 3.3091e-20 -0.125699)
(0.821323 -5.48842e-20 -0.0207038)
(0.793662 -1.02609e-19 0.106909)
(0.803121 4.5932e-20 0.240978)
(0.847843 0 0.363512)
(0.917521 -2.29138e-20 0.463155)
(1.00131 -1.4361e-19 0.537234)
(1.08998 6.05528e-20 0.586027)
(1.17643 3.25847e-19 0.613668)
(1.25611 0 0.624477)
(1.32693 -3.9467e-19 0.622753)
(1.38743 2.06864e-19 0.613877)
(1.44151 -4.86266e-19 0.597413)
(1.48924 -1.23781e-20 0.577682)
(1.53066 2.61822e-19 0.555501)
(1.56599 5.60413e-19 0.532912)
(1.59662 2.94269e-19 0.509556)
(1.62338 -2.95311e-19 0.485491)
(1.64612 3.0764e-19 0.4615)
(1.66594 -9.19457e-19 0.437341)
(1.68285 0 0.413934)
(1.6973 3.1177e-19 0.390959)
(1.70975 -3.08896e-19 0.368375)
(1.72024 -6.23889e-19 0.346524)
(1.72913 -6.17275e-19 0.325056)
(1.73652 -6.17532e-19 0.304398)
(1.74258 6.09459e-19 0.284292)
(1.7475 4.70395e-21 0.264703)
(1.75129 1.1922e-18 0.245703)
(1.75405 -1.47116e-18 0.227215)
(1.7559 -2.94652e-19 0.209333)
(1.75693 5.758e-19 0.191935)
(1.75719 -5.73975e-19 0.175078)
(1.7567 2.82984e-19 0.158689)
(1.75554 8.55522e-19 0.142808)
(1.75374 0 0.127383)
(1.75128 5.67436e-19 0.112353)
(1.74826 -4.25868e-19 0.0978174)
(1.74392 -1.24832e-18 0.0821685)
(1.73965 2.95307e-19 0.0700141)
(0.980947 -2.40723e-20 -0.101094)
(0.937647 4.30585e-20 -0.0357643)
(0.901366 4.58091e-20 0.0474561)
(0.884689 4.53927e-20 0.145162)
(0.894188 1.32038e-20 0.247293)
(0.928678 7.72708e-20 0.342988)
(0.983427 -1.09818e-19 0.425136)
(1.05161 0 0.489151)
(1.12615 0 0.534293)
(1.20081 -2.36869e-19 0.561662)
(1.27132 5.57453e-19 0.574265)
(1.33411 -4.89164e-19 0.576131)
(1.39128 3.39742e-19 0.569533)
(1.44362 -1.81746e-19 0.557328)
(1.48999 -1.83034e-19 0.540316)
(1.52943 -6.32889e-19 0.521372)
(1.56364 -4.24754e-19 0.501042)
(1.59388 -2.15836e-19 0.479463)
(1.61988 2.28202e-19 0.457379)
(1.64268 0 0.434747)
(1.66227 4.74198e-19 0.412426)
(1.67914 -4.74533e-19 0.390336)
(1.69382 -4.8669e-19 0.368438)
(1.70633 9.65725e-19 0.347094)
(1.7171 0 0.326037)
(1.7262 0 0.305645)
(1.73386 1.44655e-18 0.285762)
(1.74028 3.83098e-22 0.266326)
(1.74548 -3.50521e-21 0.247435)
(1.74961 9.51008e-19 0.228989)
(1.75275 -4.70893e-19 0.21111)
(1.75499 -4.6795e-19 0.193683)
(1.75642 9.31432e-19 0.176765)
(1.75706 2.27831e-19 0.160295)
(1.75699 -2.3042e-19 0.144295)
(1.75628 -4.57353e-19 0.128743)
(1.7549 -4.62114e-19 0.113563)
(1.75301 1.99497e-21 0.0988572)
(1.74995 4.49081e-19 0.0833987)
(1.74665 9.44744e-22 0.0704195)
(1.05096 2.79779e-20 -0.0810858)
(1.01893 4.52507e-20 -0.0357751)
(0.986527 0 0.0209004)
(0.962357 7.25684e-21 0.0904437)
(0.953631 1.10463e-20 0.16941)
(0.963772 -1.02319e-19 0.25137)
(0.993072 1.05795e-19 0.329949)
(1.03888 0 0.399028)
(1.09645 0 0.454761)
(1.16017 8.73982e-20 0.495134)
(1.22498 -1.1014e-19 0.520834)
(1.28595 -2.23045e-19 0.533821)
(1.34353 0 0.537008)
(1.39807 2.78771e-19 0.533105)
(1.44782 4.45928e-19 0.522511)
(1.49054 -1.55461e-19 0.508233)
(1.52777 3.34164e-19 0.491427)
(1.56095 5.26222e-19 0.47272)
(1.58976 -5.38826e-19 0.452813)
(1.61525 -3.68056e-19 0.431857)
(1.63724 -3.81499e-19 0.410798)
(1.65628 3.82099e-19 0.389634)
(1.67296 3.87658e-19 0.368462)
(1.68727 -7.7658e-19 0.347645)
(1.69971 0 0.326978)
(1.7103 3.93946e-19 0.306865)
(1.71933 -1.16095e-18 0.287172)
(1.72699 -3.89324e-19 0.267875)
(1.73336 -7.76929e-19 0.249076)
(1.7386 7.68657e-19 0.230675)
(1.74278 -3.84865e-19 0.21281)
(1.74602 0 0.195369)
(1.7484 -3.84881e-19 0.178425)
(1.74998 -1.90698e-19 0.16191)
(1.7508 3.68422e-22 0.145848)
(1.75095 5.67776e-19 0.130223)
(1.75043 0 0.114963)
(1.74936 3.82498e-19 0.100162)
(1.74734 7.37388e-19 0.0847454)
(1.74493 2.01912e-19 0.0712985)
(1.10453 -2.05606e-20 -0.0657401)
(1.08019 -3.90539e-20 -0.032009)
(1.0535 0 0.00871299)
(1.02953 -3.60555e-20 0.058909)
(1.01362 1.95699e-20 0.11839)
(1.00988 6.43968e-23 0.184412)
(1.02091 7.79726e-22 0.253098)
(1.04729 1.03172e-19 0.319311)
(1.08717 -1.40652e-19 0.378393)
(1.13698 0 0.426492)
(1.19224 6.90602e-20 0.462178)
(1.24781 3.47193e-19 0.485109)
(1.30281 6.75784e-21 0.497833)
(1.35702 6.82302e-21 0.502569)
(1.40818 -3.27925e-19 0.499264)
(1.45308 1.26255e-19 0.490498)
(1.49268 -3.79688e-19 0.477902)
(1.52827 -2.77369e-19 0.462592)
(1.55947 -8.51803e-21 0.445327)
(1.58732 2.8675e-19 0.426465)
(1.61148 3.06756e-19 0.406998)
(1.63252 6.07054e-19 0.387046)
(1.65105 -6.20497e-19 0.366828)
(1.66704 3.18909e-19 0.346722)
(1.68104 -6.25601e-19 0.326602)
(1.69303 3.5172e-21 0.306891)
(1.70332 3.25224e-19 0.287494)
(1.71215 -6.41566e-19 0.268427)
(1.71957 0 0.249795)
(1.7258 -9.65713e-19 0.231507)
(1.73088 1.28775e-18 0.213708)
(1.73497 -3.18236e-19 0.196303)
(1.73815 6.39135e-19 0.179374)
(1.74049 0 0.162856)
(1.74206 0 0.146775)
(1.74292 -3.18295e-19 0.131117)
(1.74309 0 0.115821)
(1.74269 0 0.100961)
(1.74146 -3.11875e-19 0.0855957)
(1.73978 -5.08985e-19 0.0718607)
(1.147 0 -0.0534982)
(1.12809 0 -0.027154)
(1.10651 -3.78423e-20 0.00357124)
(1.08532 7.4345e-20 0.0408966)
(1.06795 0 0.0857541)
(1.0577 0 0.137487)
(1.05752 -8.04176e-20 0.194447)
(1.06954 -1.03181e-19 0.253304)
(1.09405 1.13798e-19 0.310116)
(1.1297 0 0.360672)
(1.1735 -2.95051e-19 0.402295)
(1.22108 1.34062e-19 0.432755)
(1.27086 -7.06863e-20 0.453738)
(1.32224 0 0.466673)
(1.3727 8.91098e-20 0.470965)
(1.41834 2.96458e-19 0.468349)
(1.4594 8.2018e-21 0.460639)
(1.49679 2.16672e-19 0.449306)
(1.52996 -6.34654e-21 0.435181)
(1.55985 2.33145e-19 0.418855)
(1.58598 -2.51541e-19 0.401342)
(1.60888 -2.59538e-19 0.382892)
(1.62915 7.81535e-19 0.363867)
(1.64674 -5.25031e-19 0.344669)
(1.66221 5.27072e-19 0.325259)
(1.67554 2.6741e-19 0.306084)
(1.68704 0 0.287092)
(1.69699 5.43978e-19 0.26834)
(1.70543 0 0.249943)
(1.71259 0 0.231831)
(1.71853 2.71871e-19 0.214152)
(1.72341 -1.07604e-18 0.196825)
(1.72732 -5.45779e-19 0.179941)
(1.73034 8.0603e-19 0.163447)
(1.73255 1.35915e-19 0.147369)
(1.73402 -5.38422e-19 0.131701)
(1.73479 -2.71415e-19 0.11639)
(1.73494 -6.81253e-20 0.101493)
(1.73436 -3.30091e-19 0.0861645)
(1.73326 1.45341e-19 0.0722426)
(1.18183 1.82313e-20 -0.043566)
(1.16683 0 -0.0222668)
(1.14935 3.22918e-20 0.00186622)
(1.13137 4.83692e-21 0.0305715)
(1.11501 0 0.0649615)
(1.10258 0 0.105291)
(1.09649 4.94861e-20 0.151279)
(1.09915 1.8406e-20 0.201211)
(1.11196 4.02384e-20 0.252411)
(1.13522 -8.63365e-20 0.301283)
(1.16753 -8.73322e-25 0.344866)
(1.20586 5.28298e-20 0.379826)
(1.24854 0 0.406968)
(1.29498 0 0.426869)
(1.34269 1.40196e-19 0.438346)
(1.38747 1.62871e-19 0.442037)
(1.42884 -4.94105e-19 0.439638)
(1.46723 -1.82496e-19 0.432752)
(1.5018 -1.92106e-19 0.42223)
(1.53331 -1.98741e-19 0.408873)
(1.56115 2.03851e-19 0.393699)
(1.58572 0 0.377087)
(1.60762 0 0.359528)
(1.62673 -2.22784e-19 0.341463)
(1.64362 4.44536e-19 0.322947)
(1.65825 -6.78924e-19 0.304459)
(1.67094 -2.28504e-19 0.285992)
(1.68196 2.28873e-19 0.267651)
(1.69139 0 0.249569)
(1.69947 -2.31494e-19 0.2317)
(1.70624 1.69571e-21 0.214198)
(1.71189 -2.26589e-19 0.196998)
(1.71648 0 0.180201)
(1.72015 -4.63866e-19 0.16376)
(1.72295 4.65462e-19 0.147711)
(1.72497 4.66226e-19 0.132053)
(1.72627 7.03338e-19 0.116743)
(1.72691 2.93633e-19 0.101829)
(1.72687 -2.83249e-19 0.0865294)
(1.72626 5.24983e-22 0.0724857)
(1.21111 -2.85976e-20 -0.0353626)
(1.199 2.85108e-20 -0.0177014)
(1.18471 3.92858e-20 0.00185755)
(1.16964 -6.64867e-20 0.0246362)
(1.15514 -1.51016e-20 0.0516164)
(1.14272 1.56529e-20 0.083334)
(1.13409 0 0.120159)
(1.13134 3.49776e-20 0.161452)
(1.13616 3.48497e-20 0.205705)
(1.14974 1.12947e-19 0.250316)
(1.17191 -4.0125e-20 0.292694)
(1.20103 1.38671e-19 0.329206)
(1.23579 -9.83903e-20 0.360025)
(1.27583 -5.87204e-20 0.385058)
(1.31909 1.15486e-19 0.402623)
(1.36144 -2.57824e-19 0.412213)
(1.40184 2.81674e-19 0.415175)
(1.44025 1.52488e-19 0.413001)
(1.4755 -1.55147e-19 0.406439)
(1.50813 -1.66803e-19 0.396434)
(1.5373 -4.95482e-21 0.383955)
(1.56331 3.55106e-19 0.369506)
(1.58666 1.82783e-19 0.353699)
(1.60717 0 0.337009)
(1.62541 3.77111e-19 0.319596)
(1.6413 3.92744e-19 0.301964)
(1.65514 1.96201e-19 0.284162)
(1.66722 1.97026e-19 0.266347)
(1.67762 -1.99429e-19 0.24867)
(1.68659 1.9825e-19 0.231118)
(1.69418 4.02788e-19 0.213855)
(1.70058 4.01085e-19 0.196836)
(1.70586 -2.0214e-19 0.18017)
(1.71014 -8.8071e-22 0.163821)
(1.71352 -2.04399e-19 0.147832)
(1.71606 0 0.132207)
(1.71785 -4.09692e-19 0.116917)
(1.71894 -2.05542e-19 0.102001)
(1.71937 3.95413e-19 0.086731)
(1.71919 1.11076e-19 0.0726098)
(1.23619 1.47893e-20 -0.0284824)
(1.22627 -2.88377e-20 -0.0135554)
(1.21448 -2.79682e-20 0.00268312)
(1.20186 0 0.0212454)
(1.18933 0 0.0429242)
(1.17786 5.87331e-20 0.0682679)
(1.1686 0 0.0978699)
(1.16313 -1.21285e-19 0.131674)
(1.16301 -3.17509e-20 0.169005)
(1.1697 6.75745e-20 0.208206)
(1.18377 9.6006e-22 0.247336)
(1.20469 -1.97397e-19 0.283035)
(1.23164 8.59886e-20 0.315163)
(1.26468 -3.90286e-22 0.343258)
(1.30233 9.63379e-20 0.365349)
(1.34094 3.31197e-19 0.379934)
(1.37914 0 0.387881)
(1.41652 -2.49668e-19 0.390373)
(1.45163 1.36328e-19 0.387928)
(1.48472 -1.36813e-19 0.381533)
(1.51475 1.5042e-19 0.372045)
(1.54187 -1.49682e-19 0.360064)
(1.56644 -3.17874e-19 0.346286)
(1.5882 -1.57758e-19 0.331215)
(1.60768 -4.92133e-19 0.315118)
(1.62475 -5.05103e-19 0.298522)
(1.6397 3.37899e-19 0.281541)
(1.65282 -3.43683e-19 0.264378)
(1.66417 -5.15545e-19 0.247211)
(1.67401 0 0.230062)
(1.68241 -1.75668e-19 0.213109)
(1.68954 3.49099e-19 0.196329)
(1.69549 1.01232e-21 0.179844)
(1.70039 -1.75169e-19 0.163629)
(1.70432 -3.54365e-19 0.147734)
(1.70738 0 0.132172)
(1.70963 0 0.116923)
(1.71115 9.0202e-20 0.102025)
(1.71201 -6.07928e-19 0.0867904)
(1.71221 -1.92552e-19 0.0726245)
(1.25797 0 -0.0226401)
(1.24977 -6.78057e-21 -0.00983332)
(1.23994 1.02655e-22 0.00390457)
(1.22936 6.61032e-21 0.0193632)
(1.21863 5.37344e-20 0.0371666)
(1.20843 2.8871e-20 0.0577893)
(1.19948 -2.73615e-20 0.081842)
(1.19296 8.26427e-20 0.109529)
(1.19007 -2.90722e-20 0.140672)
(1.19223 3.07305e-20 0.174326)
(1.20033 5.20574e-22 0.209209)
(1.21457 3.47234e-20 0.242522)
(1.23456 0 0.274059)
(1.26073 -3.99854e-19 0.303268)
(1.29228 1.66165e-19 0.328152)
(1.32627 9.01663e-20 0.346494)
(1.36123 0 0.358667)
(1.39658 2.18156e-19 0.365448)
(1.43068 0 0.367028)
(1.46352 -2.37143e-19 0.364331)
(1.49388 0 0.35802)
(1.52168 2.65671e-19 0.348737)
(1.54717 1.45332e-21 0.337229)
(1.56996 5.6188e-19 0.32401)
(1.59053 -2.82989e-19 0.309442)
(1.60867 2.9628e-19 0.294067)
(1.62466 -3.82778e-21 0.278065)
(1.63877 2.98972e-19 0.261689)
(1.65104 6.06324e-19 0.245146)
(1.66175 3.03612e-19 0.228495)
(1.67093 3.06738e-19 0.211933)
(1.67879 1.54368e-19 0.195458)
(1.6854 -3.11276e-19 0.179207)
(1.69091 1.54638e-19 0.163172)
(1.69539 6.28293e-19 0.147411)
(1.69895 -3.12883e-19 0.131944)
(1.70166 -3.96493e-19 0.116763)
(1.70359 -1.86273e-22 0.101905)
(1.70486 7.3205e-19 0.0867173)
(1.70541 1.29349e-19 0.0725337)
(1.27712 0 -0.0176308)
(1.27027 2.57723e-20 -0.00650937)
(1.26203 0 0.00528889)
(1.2531 0 0.0183921)
(1.24395 -6.05227e-20 0.0332912)
(1.23503 -8.68401e-20 0.0503738)
(1.22683 -5.155e-20 0.0701887)
(1.22016 -5.31003e-20 0.093025)
(1.21594 0 0.118955)
(1.21536 -2.81423e-20 0.147508)
(1.21935 2.9201e-20 0.177919)
(1.2285 -6.39027e-20 0.208018)
(1.24273 0 0.237673)
(1.26272 1.40251e-19 0.266428)
(1.28828 -2.9925e-19 0.292473)
(1.31726 -1.65927e-19 0.313212)
(1.34831 -8.85975e-20 0.328602)
(1.38081 9.16727e-20 0.339012)
(1.4131 0 0.344275)
(1.44496 2.09729e-19 0.345153)
(1.47503 0 0.342053)
(1.50304 -4.99022e-21 0.335604)
(1.52907 -2.46317e-19 0.326544)
(1.55262 2.43338e-19 0.31537)
(1.57407 2.57043e-19 0.302522)
(1.59315 -2.5606e-19 0.288545)
(1.61008 -2.61902e-19 0.273682)
(1.62511 3.1716e-21 0.258233)
(1.63826 -7.99035e-19 0.242431)
(1.64979 -1.07713e-18 0.226381)
(1.65974 -8.218e-23 0.210294)
(1.66831 -8.15698e-19 0.194197)
(1.67558 -2.75585e-19 0.178241)
(1.68168 0 0.162436)
(1.68671 -2.80506e-19 0.146852)
(1.69076 2.80377e-19 0.131516)
(1.69392 2.84129e-19 0.116432)
(1.69626 7.13448e-20 0.101638)
(1.69791 -3.44724e-19 0.086515)
(1.6988 -1.53185e-19 0.0723379)
(1.29412 0 -0.0133036)
(1.28837 -5.34219e-20 -0.00354843)
(1.28141 -5.71954e-21 0.00670913)
(1.27384 -3.4952e-20 0.0179775)
(1.26603 0 0.0306465)
(1.2583 6.89886e-20 0.0450271)
(1.25098 2.26854e-20 0.0615869)
(1.24464 7.29714e-20 0.0806167)
(1.23994 -2.56763e-20 0.102296)
(1.23784 0 0.126432)
(1.23917 -5.52817e-20 0.152618)
(1.24467 -5.44803e-22 0.179247)
(1.25443 0 0.206307)
(1.26924 -1.27456e-19 0.23352)
(1.28935 6.52402e-20 0.259389)
(1.31337 1.44017e-19 0.281245)
(1.34019 7.52178e-20 0.298758)
(1.36929 1.67311e-19 0.311955)
(1.39913 -1.7126e-19 0.320341)
(1.42934 1.81003e-19 0.32447)
(1.45853 0 0.324455)
(1.48623 -2.02307e-19 0.320846)
(1.51239 2.0794e-19 0.314322)
(1.53638 0 0.30533)
(1.55846 4.38638e-19 0.294357)
(1.57829 -2.30803e-19 0.281933)
(1.59603 -4.62706e-19 0.268359)
(1.61189 4.71299e-19 0.25397)
(1.62584 2.39386e-19 0.23903)
(1.63815 1.44274e-18 0.223684)
(1.64884 -7.27042e-19 0.208161)
(1.6581 7.34472e-19 0.19252)
(1.666 -2.42568e-19 0.176924)
(1.67269 -2.46e-19 0.161404)
(1.67826 0 0.146042)
(1.68279 0 0.130876)
(1.6864 0 0.115922)
(1.68914 -6.4065e-20 0.101221)
(1.69117 9.27332e-20 0.0861825)
(1.69239 1.03804e-19 0.0720356)
(1.30934 -1.14072e-20 -0.00954433)
(1.30447 2.20284e-20 -0.000914865)
(1.29857 0 0.00809482)
(1.29213 4.25619e-20 0.0179023)
(1.28545 -4.38703e-20 0.0288205)
(1.27878 0 0.0410995)
(1.27234 0 0.0551287)
(1.26654 -6.76255e-20 0.0711695)
(1.26185 -2.45996e-20 0.089432)
(1.25902 4.86298e-20 0.109873)
(1.25873 1.48629e-19 0.132308)
(1.26173 -5.3018e-20 0.155578)
(1.26819 5.50591e-20 0.179777)
(1.27888 5.70746e-20 0.204818)
(1.29434 -1.2124e-19 0.229552)
(1.31379 -6.58831e-20 0.25146)
(1.33642 6.73682e-20 0.27006)
(1.36187 1.45932e-19 0.285143)
(1.38881 0 0.295962)
(1.41685 -3.26385e-19 0.302855)
(1.44461 3.40872e-19 0.305641)
(1.47151 3.56812e-19 0.304747)
(1.49736 -3.70075e-19 0.300743)
(1.52143 -3.82124e-19 0.293992)
(1.54386 -3.95376e-19 0.284996)
(1.56422 0 0.274248)
(1.5826 2.06636e-19 0.262089)
(1.59916 -2.10276e-19 0.248885)
(1.61384 0 0.23492)
(1.62686 -4.32989e-19 0.22038)
(1.63824 4.38778e-19 0.205512)
(1.64815 2.19886e-19 0.190404)
(1.65667 4.44675e-19 0.175236)
(1.66393 -4.44254e-19 0.160058)
(1.67002 2.2473e-19 0.144968)
(1.67504 0 0.130014)
(1.67908 -2.28512e-19 0.115225)
(1.68221 0 0.100646)
(1.68461 -2.51097e-19 0.0857168)
(1.68615 3.20735e-20 0.0716237)
(1.32305 1.05041e-20 -0.00626487)
(1.31892 0 0.00142415)
(1.31388 0 0.00940649)
(1.30838 -1.01167e-20 0.0180292)
(1.30267 5.05994e-20 0.0275465)
(1.29692 0 0.0381601)
(1.2913 2.1503e-20 0.0501934)
(1.28611 2.15415e-20 0.0638698)
(1.28168 4.32233e-20 0.0793938)
(1.2786 0 0.0967963)
(1.27741 4.78196e-20 0.116018)
(1.27878 4.92994e-20 0.136233)
(1.28289 0 0.15761)
(1.29046 0 0.180214)
(1.30212 1.09488e-19 0.203222)
(1.3176 -1.18703e-19 0.224393)
(1.33633 0 0.243205)
(1.35815 1.71674e-21 0.259321)
(1.38199 -1.34345e-19 0.271841)
(1.40749 1.48272e-19 0.280912)
(1.4334 -4.59415e-19 0.286095)
(1.45905 -3.14518e-19 0.287668)
(1.48418 -6.61126e-19 0.286061)
(1.50795 8.5723e-19 0.281525)
(1.53042 -1.7755e-19 0.274544)
(1.55106 1.80441e-19 0.265547)
(1.5699 -1.86191e-19 0.254901)
(1.58701 3.77521e-19 0.242982)
(1.60229 5.71694e-19 0.230094)
(1.61595 0 0.216456)
(1.62796 1.97869e-19 0.20233)
(1.63848 -5.90112e-19 0.187833)
(1.64759 -8.02917e-19 0.173162)
(1.65539 2.01642e-19 0.158386)
(1.66199 6.09985e-19 0.143617)
(1.66747 0 0.128919)
(1.67194 1.22292e-21 0.114331)
(1.67546 2.6146e-19 0.0999069)
(1.67823 -4.9648e-20 0.0851138)
(1.68008 -1.1269e-19 0.0710986)
(1.33547 0 -0.00339595)
(1.33195 0 0.00349792)
(1.32765 0 0.0106224)
(1.32294 0 0.0182689)
(1.31803 0 0.0266459)
(1.31309 -1.94189e-20 0.0359177)
(1.30821 -5.91702e-20 0.0463532)
(1.30362 0 0.0581393)
(1.29958 8.35506e-20 0.0714606)
(1.29652 -4.26469e-20 0.0863799)
(1.29488 -4.26093e-20 0.102904)
(1.29523 -9.31536e-20 0.120442)
(1.29775 0 0.139203)
(1.30302 0 0.159359)
(1.31173 0 0.180353)
(1.32388 -1.10202e-19 0.200275)
(1.33917 2.24829e-19 0.218635)
(1.35758 -1.26675e-21 0.235056)
(1.37832 3.76516e-19 0.248579)
(1.40111 -5.1914e-19 0.259211)
(1.42487 1.39087e-19 0.266313)
(1.44893 2.86905e-19 0.270012)
(1.47295 1.48895e-19 0.270583)
(1.49609 -4.65856e-19 0.268152)
(1.51828 1.59816e-19 0.263151)
(1.53895 1.644e-19 0.255929)
(1.55802 1.63254e-19 0.246853)
(1.57552 1.6924e-19 0.236296)
(1.59128 -3.42414e-21 0.224568)
(1.60546 0 0.211915)
(1.61802 0 0.19861)
(1.6291 1.79783e-19 0.184798)
(1.63875 5.4685e-19 0.170689)
(1.64707 0 0.156374)
(1.65416 -7.41696e-19 0.14198)
(1.66009 2.77595e-19 0.127583)
(1.66498 -9.30928e-20 0.113235)
(1.66888 -1.43624e-19 0.0989981)
(1.672 -4.52785e-20 0.0843692)
(1.67415 1.03142e-19 0.0704569)
(1.34679 4.68845e-21 -0.000882007)
(1.34378 -4.66267e-21 0.00533255)
(1.34009 -3.68625e-20 0.011732)
(1.33605 3.65683e-20 0.0185628)
(1.33183 0 0.025998)
(1.32758 -3.71891e-20 0.0341722)
(1.32335 3.70205e-20 0.04331)
(1.31933 0 0.0535667)
(1.31572 -7.71872e-20 0.0651033)
(1.31283 0 0.0779921)
(1.31103 0 0.0922713)
(1.31079 -4.50528e-20 0.107514)
(1.31225 4.40956e-20 0.123943)
(1.31589 -9.24591e-20 0.141789)
(1.32235 1.90285e-19 0.160702)
(1.33184 -1.00206e-19 0.179095)
(1.3442 -1.01569e-19 0.19655)
(1.35956 -3.27054e-19 0.21271)
(1.37736 -2.29211e-19 0.226634)
(1.39743 2.37349e-19 0.238239)
(1.41889 -1.27189e-19 0.246759)
(1.4411 1.2766e-19 0.252185)
(1.46373 0 0.254646)
(1.48593 2.81045e-19 0.254135)
(1.50756 2.84901e-19 0.251013)
(1.52799 -5.95112e-19 0.245531)
(1.54708 -4.51277e-19 0.238037)
(1.56477 -1.53434e-19 0.228884)
(1.58085 -1.61344e-19 0.218376)
(1.59545 4.75717e-19 0.206775)
(1.60847 0 0.19436)
(1.62004 3.24846e-19 0.1813)
(1.63017 3.30554e-19 0.167815)
(1.63897 -1.66978e-19 0.154019)
(1.64652 6.77725e-19 0.140049)
(1.65288 -5.10099e-19 0.125998)
(1.65817 2.59911e-19 0.111929)
(1.66244 8.70679e-20 0.0979141)
(1.6659 2.97097e-19 0.0834792)
(1.66836 4.69561e-20 0.0696954)
(1.35714 -4.42976e-21 0.0013222)
(1.35457 -3.10137e-20 0.00695102)
(1.3514 -4.83983e-22 0.012731)
(1.34792 -5.1612e-20 0.0188721)
(1.3443 -1.73483e-20 0.025519)
(1.34063 3.46654e-20 0.0327831)
(1.33698 0 0.0408529)
(1.33349 -3.69364e-20 0.0498572)
(1.33029 -1.11596e-19 0.0599341)
(1.32766 3.80245e-20 0.0711551)
(1.32586 -3.89805e-20 0.0835703)
(1.3253 8.05493e-20 0.0968656)
(1.32608 0 0.111261)
(1.32859 8.5139e-20 0.127014)
(1.33339 1.36233e-21 0.143917)
(1.34079 9.31987e-20 0.160677)
(1.35075 0 0.17696)
(1.36347 -1.22992e-21 0.192459)
(1.37861 3.14379e-19 0.206306)
(1.39608 0 0.218372)
(1.41522 2.29477e-19 0.227829)
(1.43546 2.35547e-19 0.234567)
(1.45649 0 0.238583)
(1.4775 -2.57271e-19 0.239751)
(1.4983 5.18486e-19 0.238348)
(1.51826 7.94508e-21 0.234518)
(1.53714 4.11337e-21 0.228573)
(1.55483 0 0.22083)
(1.57109 -2.56714e-21 0.211573)
(1.58597 -2.92213e-19 0.201071)
(1.59935 -2.94766e-19 0.1896)
(1.61132 -2.3631e-21 0.17735)
(1.62188 -1.54661e-19 0.164545)
(1.63111 4.54939e-19 0.15132)
(1.63908 3.08819e-19 0.137823)
(1.64585 -3.10424e-19 0.124161)
(1.65152 -3.15834e-19 0.11041)
(1.65614 0 0.0966514)
(1.65994 -1.95617e-19 0.0824408)
(1.66269 1.29129e-19 0.0688117)
(1.36665 0 0.00325397)
(1.36445 3.31462e-20 0.00837358)
(1.36172 4.90814e-20 0.0136193)
(1.35873 -4.93938e-22 0.019171)
(1.35561 -6.47006e-23 0.0251504)
(1.35245 -4.98094e-20 0.0316505)
(1.3493 1.34106e-22 0.0388304)
(1.34628 1.37138e-19 0.0467972)
(1.34348 1.0506e-19 0.0556685)
(1.34113 7.27318e-20 0.0655101)
(1.33944 -7.36545e-20 0.0763743)
(1.33874 7.68684e-20 0.0880256)
(1.33911 -7.88421e-20 0.100671)
(1.34084 4.66309e-22 0.11457)
(1.34443 8.39641e-20 0.129614)
(1.35023 8.80681e-20 0.144754)
(1.35826 9.09846e-20 0.15974)
(1.36877 2.82473e-19 0.174328)
(1.38157 -9.66095e-20 0.187747)
(1.39666 0 0.199857)
(1.41356 2.57752e-24 0.209828)
(1.43179 -4.95737e-22 0.217477)
(1.45111 -2.27605e-19 0.222702)
(1.47076 2.30302e-19 0.225275)
(1.49053 2.39039e-19 0.225387)
(1.50979 3.63742e-21 0.223075)
(1.52826 -2.50202e-19 0.218604)
(1.54577 -5.17195e-19 0.212237)
(1.56204 -3.40459e-21 0.204234)
(1.57707 -2.65341e-19 0.194855)
(1.5907 2.72292e-19 0.184366)
(1.60299 -5.46675e-19 0.172968)
(1.6139 -2.04361e-21 0.160891)
(1.62351 -2.80638e-19 0.148283)
(1.63185 -4.28495e-19 0.135304)
(1.639 4.29894e-19 0.122072)
(1.64502 2.92315e-19 0.108677)
(1.64998 -7.39234e-20 0.0952082)
(1.6541 7.18043e-20 0.0812522)
(1.65712 -4.01048e-22 0.0678042)
(1.37541 3.97566e-21 0.00494445)
(1.37352 3.94109e-21 0.00961811)
(1.37117 -3.925e-20 0.0143991)
(1.3686 1.51483e-20 0.0194422)
(1.36591 -5.2123e-23 0.0248506)
(1.3632 4.77894e-20 0.0307023)
(1.36049 0 0.0371324)
(1.35788 0 0.0442303)
(1.35545 -1.66597e-19 0.0520958)
(1.35339 -3.3662e-20 0.0607874)
(1.35185 -7.04106e-20 0.0703551)
(1.35112 -7.32438e-20 0.0806182)
(1.35125 7.28981e-20 0.0917654)
(1.35247 -3.05256e-19 0.104047)
(1.3552 2.36015e-19 0.117414)
(1.35979 1.66093e-19 0.131022)
(1.3663 -1.66159e-19 0.144689)
(1.37499 -8.54189e-20 0.158232)
(1.38579 0 0.170989)
(1.39876 0 0.182831)
(1.41357 -1.95149e-19 0.192964)
(1.42986 -1.08432e-22 0.201166)
(1.44743 -2.25068e-21 0.207264)
(1.46562 4.28346e-19 0.210957)
(1.48421 -6.57549e-19 0.212351)
(1.50259 -4.37298e-21 0.211392)
(1.52047 2.30081e-19 0.20828)
(1.53763 2.37912e-19 0.203226)
(1.55375 4.80164e-19 0.196448)
(1.56879 -2.42042e-19 0.18819)
(1.58255 2.50868e-19 0.178701)
(1.59506 2.55489e-19 0.168186)
(1.60625 -1.02261e-18 0.156872)
(1.61617 0 0.144922)
(1.62485 0 0.132499)
(1.63233 2.63329e-19 0.119736)
(1.63868 -2.68159e-19 0.106732)
(1.64396 0 0.093585)
(1.64837 0 0.0799134)
(1.65166 -3.71269e-22 0.0666725)
(1.38351 0 0.00641996)
(1.38189 7.51648e-21 0.0107004)
(1.37987 2.21418e-20 0.015074)
(1.37765 2.94491e-20 0.0196745)
(1.37534 2.97828e-20 0.0245897)
(1.373 -9.00953e-20 0.0298856)
(1.37068 0 0.0356776)
(1.36843 -3.11602e-20 0.0420402)
(1.36634 1.26575e-19 0.0490587)
(1.36455 -3.26393e-20 0.0567835)
(1.36319 -4.63704e-22 0.0652605)
(1.3625 1.37952e-19 0.0743482)
(1.3625 1.39786e-19 0.0842157)
(1.36339 -1.45989e-19 0.0950952)
(1.36552 -7.28619e-20 0.106976)
(1.3692 -7.6307e-20 0.119176)
(1.37452 -7.86608e-20 0.131566)
(1.38174 -1.63112e-19 0.144019)
(1.39087 0 0.155976)
(1.402 0 0.167331)
(1.41492 0 0.177353)
(1.42939 -1.86948e-19 0.185805)
(1.44524 -1.88779e-21 0.192474)
(1.46193 2.02669e-21 0.197009)
(1.47924 3.83069e-21 0.199447)
(1.49663 -2.07534e-19 0.199649)
(1.51377 6.37655e-19 0.197758)
(1.53043 0 0.193922)
(1.54625 -4.45937e-19 0.188315)
(1.56117 2.25901e-19 0.181153)
(1.57494 6.86754e-19 0.172662)
(1.58757 6.9611e-19 0.163044)
(1.59896 7.11279e-19 0.152518)
(1.60913 -4.74555e-19 0.141254)
(1.61808 0 0.129422)
(1.62585 1.21095e-19 0.11716)
(1.6325 4.98609e-19 0.104579)
(1.63806 -1.2576e-19 0.0917846)
(1.64275 0 0.0784256)
(1.6463 -6.9012e-20 0.0654176)
(1.39102 0 0.00770303)
(1.38963 3.59422e-20 0.0116347)
(1.38788 -7.09862e-21 0.0156487)
(1.38597 0 0.0198609)
(1.38399 -2.84314e-20 0.0243466)
(1.38198 8.66416e-20 0.0291617)
(1.37999 -5.86519e-20 0.0344052)
(1.37807 2.97384e-20 0.0401399)
(1.37628 -9.08417e-20 0.0464382)
(1.37474 1.2428e-19 0.0533437)
(1.37356 -1.26992e-19 0.0608968)
(1.37294 -6.51329e-20 0.0689848)
(1.37291 -6.70357e-20 0.0777576)
(1.37359 1.36165e-19 0.0874265)
(1.37528 -2.10718e-19 0.0980032)
(1.37829 7.30919e-20 0.108932)
(1.3827 1.49573e-19 0.120125)
(1.38875 -1.54844e-19 0.131501)
(1.39649 1.58209e-19 0.142594)
(1.40605 0 0.153324)
(1.41731 1.7063e-19 0.163037)
(1.4301 -3.44349e-19 0.171498)
(1.44432 0 0.178478)
(1.45953 3.69376e-19 0.1836)
(1.47553 -1.8587e-19 0.186846)
(1.49184 0 0.188014)
(1.50812 -5.93461e-19 0.187187)
(1.52415 2.00346e-19 0.184453)
(1.53955 -4.0984e-19 0.179938)
(1.55421 2.10341e-19 0.173826)
(1.5679 -2.14112e-19 0.166312)
(1.58055 -2.85018e-21 0.157589)
(1.59205 -2.19438e-19 0.147863)
(1.60239 4.41412e-19 0.137306)
(1.61156 6.71971e-19 0.126089)
(1.61958 1.1089e-19 0.114357)
(1.62648 1.13699e-19 0.102226)
(1.6323 -2.92354e-19 0.0898122)
(1.63725 8.60871e-20 0.0767923)
(1.64104 -3.13628e-20 0.0640417)
(1.39799 3.42077e-21 0.00881316)
(1.3968 -2.37996e-20 0.0124338)
(1.3953 2.04079e-20 0.0161282)
(1.39365 -4.05993e-20 0.0199975)
(1.39195 -4.10261e-20 0.0241061)
(1.39023 -5.47235e-20 0.0285017)
(1.38853 -5.56708e-22 0.0332699)
(1.38689 0 0.0384635)
(1.38537 -5.815e-20 0.0441444)
(1.38406 5.96019e-20 0.0503497)
(1.38307 6.00005e-20 0.0571147)
(1.38254 0 0.0643478)
(1.3825 6.30486e-20 0.0721813)
(1.38306 1.31006e-19 0.0808049)
(1.38446 1.32045e-19 0.0902422)
(1.38697 0 0.100037)
(1.39068 1.12852e-21 0.110133)
(1.39579 9.50964e-22 0.120481)
(1.4024 -2.99406e-19 0.130698)
(1.41063 3.05167e-19 0.140729)
(1.42045 0 0.149998)
(1.43174 -1.62889e-19 0.158287)
(1.44445 -1.68215e-19 0.165365)
(1.45823 0 0.170851)
(1.47293 -1.76018e-19 0.17469)
(1.48811 -1.81399e-19 0.17663)
(1.50347 1.80817e-19 0.176702)
(1.51876 1.86072e-19 0.17494)
(1.53363 5.71038e-19 0.171422)
(1.54794 5.79111e-19 0.166296)
(1.56143 -7.90217e-19 0.15972)
(1.574 -2.03157e-19 0.151874)
(1.58553 8.12268e-19 0.142946)
(1.59597 -4.17869e-22 0.133106)
(1.6053 -4.17222e-19 0.122521)
(1.61351 -7.38281e-19 0.11134)
(1.62064 -1.08435e-19 0.0996849)
(1.62669 1.18699e-21 0.0876753)
(1.63186 -2.40589e-19 0.0750187)
(1.63587 -8.65237e-20 0.0625486)
(1.40447 0 0.00976744)
(1.40346 0 0.0131091)
(1.40217 -1.28388e-20 0.0165181)
(1.40075 -1.31356e-20 0.0200824)
(1.39929 5.18224e-20 0.0238576)
(1.39782 5.28561e-20 0.0278846)
(1.39637 -4.84213e-22 0.0322375)
(1.39499 0 0.0369609)
(1.3937 1.10366e-19 0.0421081)
(1.39261 -1.13088e-19 0.0477103)
(1.39178 5.76446e-20 0.0537984)
(1.39135 -5.95669e-20 0.0602962)
(1.39135 1.82041e-19 0.0673204)
(1.39183 -1.85473e-19 0.0750399)
(1.39304 0 0.0834834)
(1.39518 0 0.0922738)
(1.39834 0 0.101377)
(1.40272 0 0.110767)
(1.4084 -1.41841e-19 0.120131)
(1.41553 1.15707e-21 0.129433)
(1.42411 1.52115e-21 0.138177)
(1.43407 1.78165e-21 0.146164)
(1.44542 1.43652e-21 0.153176)
(1.45786 -1.5918e-19 0.158842)
(1.4713 -1.64364e-19 0.16308)
(1.48535 5.03907e-19 0.16561)
(1.49973 -8.54188e-19 0.16642)
(1.51423 6.98266e-19 0.165494)
(1.52849 -8.8683e-19 0.162866)
(1.54235 -3.61979e-19 0.158647)
(1.55553 3.68762e-19 0.152958)
(1.56794 -2.14186e-21 0.145957)
(1.57941 -5.70246e-19 0.137814)
(1.58989 -1.93094e-19 0.12869)
(1.59932 0 0.118745)
(1.60767 4.90333e-19 0.10813)
(1.61497 -4.99179e-19 0.0969683)
(1.62121 2.03956e-19 0.0853839)
(1.62659 4.00489e-19 0.0731116)
(1.63079 -3.07433e-22 0.0609435)
(1.41052 0 0.010581)
(1.40965 -1.24589e-20 0.0136713)
(1.40855 4.95992e-20 0.0168238)
(1.40733 1.22585e-20 0.0201154)
(1.40608 0 0.023594)
(1.40483 -1.00844e-19 0.0272947)
(1.40361 5.09176e-20 0.0312821)
(1.40244 0 0.035594)
(1.40136 0 0.0402762)
(1.40046 2.50624e-22 0.0453552)
(1.39978 1.10315e-19 0.0508575)
(1.39946 -5.68882e-20 0.0567193)
(1.39949 -1.14918e-19 0.0630429)
(1.39995 -1.18911e-19 0.0699778)
(1.40102 0 0.0775546)
(1.40288 -1.25708e-19 0.0854584)
(1.40563 1.27101e-19 0.093671)
(1.40943 7.66285e-22 0.102182)
(1.41436 -9.64875e-22 0.110736)
(1.42057 1.36709e-19 0.119313)
(1.4281 -1.40303e-19 0.127489)
(1.43691 0 0.13509)