/*--------------------------------*- C++ -*----------------------------------*\
| =========                 |                                                 |
| \\      /  F ield         | OpenFOAM: The Open Source CFD Toolbox           |
|  \\    /   O peration     | Version:  5.x                                   |
|   \\  /    A nd           | Web:      www.OpenFOAM.org                      |
|    \\/     M anipulation  |                                                 |
\*---------------------------------------------------------------------------*/
FoamFile
{
    version     2.0;
    format      ascii;
    class       volScalarField;
    location    "200";
    object      nuTilda;
}
// * * * * * * * * * * * * * * * * * * * * * * * * * * * * * * * * * * * * * //

dimensions      [0 2 -1 0 0 0 0];

internalField   nonuniform List<scalar> 
26000
(
0.000535585
0.000421153
0.000323166
0.000257249
0.000212377
0.000182911
0.000170701
0.000163884
0.000159402
0.000155601
0.000152756
0.000151364
0.000148218
0.000148024
0.000148478
0.000148594
0.0001491
0.00015031
0.000152069
0.000154457
0.000157228
0.000160162
0.000163458
0.000166903
0.000170017
0.000172629
0.000174854
0.000176989
0.000179083
0.000181204
0.000183211
0.000184859
0.000186116
0.000186947
0.000187375
0.000187355
0.000186853
0.000185923
0.000183832
0.000181479
0.00225684
0.00191274
0.00152357
0.00123318
0.00102056
0.000864066
0.000745666
0.000656929
0.000587383
0.0005347
0.000493605
0.000462623
0.000435491
0.000414782
0.00040027
0.00038684
0.000374759
0.000367101
0.000361628
0.000359838
0.000359469
0.000359371
0.000361289
0.000363608
0.000363269
0.000359913
0.000354959
0.000350143
0.000345642
0.000341788
0.000337636
0.000331847
0.000325009
0.000317089
0.000308478
0.000299033
0.000289033
0.000278539
0.000266825
0.000256606
0.00417133
0.00367844
0.00312762
0.00264211
0.00223568
0.00191709
0.0016672
0.00147402
0.00132021
0.00120066
0.00110648
0.00103404
0.000972153
0.000917084
0.00086735
0.0008293
0.000796981
0.000768813
0.000746726
0.000728823
0.000716296
0.000704291
0.000693659
0.000685647
0.000680236
0.000677064
0.00067462
0.000674123
0.000674404
0.000676322
0.000675587
0.000669719
0.000662007
0.000651603
0.000638896
0.000623507
0.000605949
0.000586585
0.000562829
0.000541216
0.00623825
0.00566518
0.0049833
0.00430892
0.00372918
0.00324773
0.00284979
0.00252667
0.00226124
0.00204845
0.00187741
0.00174517
0.00163297
0.00153186
0.00145046
0.00138888
0.00133667
0.00129248
0.00125766
0.00122992
0.00120978
0.00118705
0.00116521
0.00114756
0.00113276
0.00112064
0.00110895
0.00109929
0.00109065
0.00108331
0.00107711
0.00107109
0.00106595
0.00105508
0.00103955
0.00101882
0.000993691
0.000964701
0.000928492
0.000894268
0.00842156
0.00779513
0.00701445
0.00621943
0.00548653
0.00484044
0.00428463
0.00381758
0.00342633
0.00310691
0.0028463
0.00264197
0.00246914
0.00231457
0.00218672
0.00208818
0.00200406
0.00193084
0.00187026
0.0018193
0.0017797
0.00174563
0.00171671
0.00169398
0.00167511
0.00165696
0.00163789
0.00162097
0.00160381
0.00158683
0.00157059
0.0015542
0.00153885
0.00152279
0.00150515
0.00147945
0.00144654
0.00140721
0.00135726
0.0013087
0.0107032
0.0100398
0.00919159
0.00830543
0.00744726
0.00666507
0.00596478
0.00535105
0.00482342
0.00438281
0.00401689
0.00372499
0.00347666
0.00325306
0.00306114
0.00291026
0.00278796
0.00268395
0.0025972
0.00252336
0.00246372
0.00241019
0.00236382
0.00232588
0.00229219
0.002265
0.00224041
0.0022198
0.00219574
0.00217087
0.00214525
0.00211801
0.00209085
0.0020624
0.00203382
0.0020016
0.00196007
0.00190924
0.00184402
0.0017793
0.0130679
0.012378
0.0114832
0.0105279
0.0095773
0.00867754
0.00784363
0.00709593
0.00643364
0.00586501
0.00538218
0.00498951
0.00465192
0.00434732
0.00408631
0.00387746
0.00370655
0.00356134
0.00343801
0.00333056
0.00324356
0.00316919
0.0031056
0.00305303
0.00300308
0.0029613
0.0029226
0.00288851
0.00285666
0.00282612
0.00279213
0.00275469
0.00271576
0.00267381
0.00263069
0.0025849
0.00253293
0.00246902
0.00238677
0.00230396
0.0155024
0.0147939
0.0138678
0.0128623
0.0118438
0.010851
0.009907
0.00903423
0.00824168
0.00754471
0.00694047
0.00643992
0.00600463
0.00560963
0.00526717
0.00498938
0.0047575
0.00456014
0.00439552
0.00425145
0.00413366
0.00403048
0.00394094
0.00386584
0.00379885
0.0037437
0.00368996
0.00364079
0.00359412
0.00354941
0.00350627
0.00345944
0.003409
0.00335323
0.00329443
0.00323155
0.00316505
0.00308567
0.00298444
0.00288153
0.0179938
0.0172734
0.0163275
0.0152877
0.0142194
0.013156
0.0121203
0.0111417
0.0102324
0.0094139
0.00868766
0.0080747
0.00753447
0.00704015
0.00660449
0.00624726
0.00594833
0.00569153
0.00547709
0.00528684
0.00512823
0.00499305
0.00487555
0.0047753
0.00468411
0.00460665
0.00453646
0.00447313
0.00441074
0.00434949
0.00429038
0.00423022
0.0041679
0.004098
0.00402273
0.00394121
0.00385522
0.00375867
0.00363645
0.00351129
0.02053
0.0198033
0.0188468
0.0177851
0.0166803
0.0155667
0.0144594
0.0133929
0.0123788
0.0114473
0.0106069
0.00988266
0.00923416
0.00863326
0.00809886
0.00765581
0.00728231
0.00695615
0.00668115
0.00643972
0.00623654
0.00606242
0.00590899
0.00577807
0.00566088
0.00555936
0.00546661
0.00538209
0.00530298
0.00522503
0.00514815
0.00506986
0.00499148
0.00490662
0.00481396
0.00471257
0.00460489
0.0044882
0.00434242
0.00419277
0.0230989
0.0223708
0.0214115
0.0203386
0.0192106
0.0180611
0.0169
0.0157615
0.0146617
0.0136314
0.0126835
0.0118517
0.0110962
0.0103879
0.00974949
0.00921394
0.00875557
0.00835457
0.00801378
0.00771388
0.00745828
0.00723813
0.00704485
0.00687896
0.00672923
0.0065989
0.00648192
0.00637357
0.00627176
0.00617366
0.00607821
0.00598015
0.00588147
0.00577857
0.00566705
0.00554452
0.00541353
0.00527386
0.00510195
0.00492558
0.0256889
0.0249637
0.0240079
0.0229325
0.0217922
0.0206193
0.0194198
0.0182261
0.0170565
0.01594
0.0148982
0.0139672
0.0131093
0.0122948
0.01155
0.0109162
0.0103698
0.00988809
0.00947472
0.00910721
0.00879435
0.00852381
0.00828364
0.00807659
0.00789166
0.00772785
0.00757981
0.00744618
0.00731949
0.00719674
0.00707889
0.0069601
0.00683914
0.00671292
0.00658131
0.00643627
0.00628037
0.006115
0.0059146
0.00570942
0.0282885
0.0275702
0.0266234
0.0255525
0.0244086
0.0232226
0.021998
0.020764
0.0195398
0.0183536
0.0172299
0.016208
0.0152541
0.0143384
0.0134898
0.0127579
0.0121211
0.0115535
0.0110613
0.0106217
0.0102455
0.00991632
0.00962533
0.00937323
0.00914552
0.00894544
0.00876386
0.00859758
0.00844447
0.0082952
0.00815109
0.00800851
0.00786378
0.00771221
0.00755662
0.00738718
0.0072047
0.00701077
0.00677992
0.00654399
0.030887
0.030179
0.0292459
0.0281855
0.0270453
0.0258537
0.0246159
0.0233544
0.0220874
0.0208478
0.019655
0.0185564
0.0175165
0.0165067
0.0155587
0.0147294
0.0139984
0.0133432
0.0127711
0.0122546
0.0118086
0.0114172
0.0110701
0.0107667
0.0104939
0.0102524
0.0100324
0.00983138
0.00964467
0.00946735
0.00929506
0.00912361
0.00895407
0.00877562
0.00859174
0.00839666
0.00818589
0.00796009
0.00769756
0.00742902
0.0334743
0.0327796
0.0318642
0.0308196
0.0296899
0.0285012
0.0272582
0.0259805
0.0246842
0.023403
0.0221553
0.0209908
0.019874
0.0187786
0.0177383
0.0168165
0.0159942
0.0152513
0.0145942
0.0139989
0.0134817
0.0130236
0.0126149
0.0122572
0.0119326
0.0116473
0.0113856
0.0111452
0.010923
0.0107114
0.0105094
0.0103076
0.0101091
0.00990202
0.00968826
0.0094645
0.00922329
0.00896454
0.00866752
0.00836416
0.0360406
0.0353618
0.0344673
0.0334428
0.032329
0.0311502
0.0299097
0.028625
0.0273104
0.0259979
0.0247092
0.0234899
0.02231
0.0211399
0.020016
0.0190076
0.0180974
0.0172657
0.0165248
0.01585
0.0152563
0.0147295
0.0142574
0.01384
0.0134619
0.013126
0.0128208
0.0125385
0.0122768
0.0120293
0.0117922
0.0115586
0.0113267
0.0110899
0.0108448
0.0105897
0.010316
0.0100228
0.00968917
0.00934891
0.0385772
0.0379164
0.0370456
0.0360446
0.0349511
0.0337876
0.0325563
0.0312728
0.0299499
0.0286178
0.0272988
0.0260368
0.0248041
0.0235688
0.0223708
0.0212835
0.0202917
0.0193766
0.0185544
0.0177976
0.017128
0.0165309
0.0159913
0.0155131
0.0150763
0.0146885
0.0143338
0.0140082
0.0137048
0.0134184
0.0131442
0.0128753
0.0126086
0.0123383
0.01206
0.0117707
0.0114629
0.0111338
0.0107617
0.0103826
0.0410762
0.0404351
0.0395902
0.0386153
0.0375457
0.0364018
0.0351851
0.0339097
0.0325866
0.0312446
0.0299055
0.0286118
0.0273373
0.0260497
0.0247888
0.0236317
0.0225649
0.0215717
0.0206692
0.0198336
0.0190892
0.0184192
0.0178122
0.0172692
0.0167735
0.0163293
0.0159241
0.01555
0.0152037
0.0148747
0.0145625
0.0142544
0.0139521
0.0136446
0.0133323
0.0130055
0.0126629
0.0122964
0.0118841
0.0114644
0.0435304
0.0429105
0.042093
0.0411465
0.0401035
0.0389829
0.0377853
0.0365233
0.035207
0.0338629
0.0325125
0.0311969
0.0298894
0.028562
0.0272495
0.0260323
0.0248978
0.0238346
0.0228585
0.0219474
0.0211284
0.0203877
0.019711
0.0191043
0.018546
0.0180457
0.0175862
0.0171632
0.0167698
0.0163978
0.0160443
0.015696
0.0153552
0.0150096
0.0146605
0.0142954
0.0139152
0.0135095
0.0130552
0.0125934
0.0459337
0.0453361
0.0445472
0.0436306
0.0426164
0.0415218
0.040347
0.0391032
0.0377993
0.0364599
0.0351047
0.0337775
0.0324481
0.0310897
0.0297343
0.0284665
0.027276
0.026148
0.0251047
0.0241241
0.0232359
0.0224247
0.0216812
0.0210087
0.0203897
0.0198303
0.0193172
0.0188421
0.0184014
0.0179836
0.0175853
0.0171966
0.0168143
0.0164303
0.0160424
0.0156379
0.0152182
0.0147716
0.0142739
0.0137685
0.0482809
0.0477063
0.0469468
0.0460614
0.0450775
0.0440111
0.0428619
0.0416402
0.0403536
0.0390252
0.0376732
0.0363407
0.0349981
0.0336184
0.0322318
0.0309234
0.0296847
0.0285013
0.0273983
0.0263536
0.0253984
0.024522
0.0237116
0.0229767
0.0222954
0.0216789
0.0211099
0.0205836
0.0200934
0.0196271
0.0191847
0.0187531
0.0183289
0.0179042
0.0174752
0.0170303
0.01657
0.0160811
0.0155386
0.0149885
0.0505676
0.0500166
0.049287
0.0484334
0.047481
0.0464445
0.0453231
0.0441263
0.0428611
0.0415486
0.0402061
0.0388747
0.0375257
0.0361331
0.0347254
0.033386
0.0321075
0.0308761
0.0297222
0.0286213
0.0276063
0.0266666
0.0257947
0.0249973
0.0242574
0.0235828
0.0229601
0.0223813
0.0218397
0.0213263
0.0208379
0.0203608
0.0198951
0.0194283
0.0189555
0.0184703
0.0179684
0.0174361
0.0168478
0.0162518
0.0527904
0.0522631
0.0515637
0.0507424
0.0498223
0.048817
0.0477249
0.0465553
0.0453144
0.0440219
0.0426939
0.0413692
0.0400203
0.0386206
0.0372015
0.03584
0.0345297
0.0332616
0.0320618
0.0309115
0.0298451
0.0288497
0.0279183
0.0270638
0.0262656
0.0255367
0.0248601
0.0242278
0.0236372
0.0230755
0.0225395
0.0220185
0.0215096
0.0209992
0.0204832
0.0199559
0.0194112
0.0188345
0.0181996
0.0175571
0.0549467
0.0544432
0.0537738
0.0529847
0.0520977
0.0511252
0.0500628
0.0489218
0.0477076
0.0464383
0.0451289
0.0438162
0.0424736
0.0410749
0.0396505
0.0382734
0.0369427
0.0356461
0.0344098
0.0332169
0.0321019
0.0310582
0.0300746
0.0291647
0.0283138
0.0275315
0.0268013
0.0261192
0.0254792
0.0248684
0.0242872
0.0237217
0.0231685
0.0226123
0.0220543
0.0214844
0.0208959
0.0202742
0.0195921
0.0189027
0.0570346
0.0565547
0.0559149
0.0551577
0.0543031
0.0533629
0.0523321
0.0512214
0.0500359
0.0487925
0.0475051
0.0462085
0.0448775
0.0434863
0.0420637
0.0406797
0.0393349
0.0380173
0.0367526
0.0355252
0.0343695
0.03328
0.0322514
0.031293
0.0303918
0.0295577
0.028779
0.0280478
0.0273586
0.0267022
0.0260756
0.0254652
0.0248672
0.0242669
0.0236658
0.0230526
0.0224199
0.0217527
0.0210233
0.0202866
0.0590533
0.0585966
0.0579858
0.0572602
0.0564378
0.0555293
0.0545304
0.0534511
0.0522957
0.0510803
0.0498178
0.0485407
0.0472254
0.0458471
0.0444325
0.0430486
0.0416966
0.0403647
0.0390784
0.0378239
0.0366356
0.0355087
0.0344379
0.0334377
0.0324894
0.0316101
0.0307847
0.0300057
0.0292719
0.0285705
0.0278987
0.0272438
0.0266004
0.025958
0.0253141
0.0246575
0.0239803
0.0232675
0.0224908
0.0217072
0.0610022
0.0605684
0.0599861
0.0592915
0.0585017
0.057624
0.0566567
0.0556091
0.054485
0.0532992
0.0520636
0.0508089
0.0495128
0.0481515
0.0467502
0.0453724
0.0440196
0.0426801
0.0413772
0.0401023
0.0388884
0.0377331
0.0366284
0.0355904
0.0346016
0.0336799
0.03281
0.031989
0.0312123
0.0304669
0.0297503
0.0290521
0.0283671
0.0276821
0.0269954
0.0262956
0.0255742
0.024816
0.0239924
0.0231623
0.0628816
0.06247
0.0619153
0.0612507
0.0604917
0.0596452
0.0587099
0.0576943
0.0566022
0.0554474
0.0542407
0.0530105
0.0517364
0.0503957
0.049012
0.0476454
0.0462977
0.0449576
0.043647
0.0423588
0.0411254
0.0399445
0.0388131
0.0377412
0.0367185
0.0357582
0.034851
0.0339905
0.0331728
0.0323851
0.0316289
0.0308896
0.0301629
0.0294346
0.0287059
0.0279636
0.0271985
0.0263955
0.0255257
0.0246499
0.0646922
0.0643024
0.0637747
0.0631397
0.0624098
0.0615936
0.0606898
0.0597063
0.0586467
0.0575239
0.0563487
0.055144
0.053894
0.0525769
0.0512143
0.0498633
0.0485258
0.0471908
0.0458793
0.0445848
0.043339
0.0421396
0.0409857
0.0398873
0.0388331
0.0378417
0.0369002
0.0360031
0.0351466
0.0343227
0.0335288
0.0327505
0.0319832
0.0312106
0.0304416
0.0296579
0.0288503
0.0280031
0.0270883
0.0261679
0.0664348
0.0660662
0.0655649
0.064957
0.0642559
0.0634697
0.062597
0.0616454
0.0606183
0.0595276
0.0583837
0.0572073
0.0559842
0.0546935
0.0533549
0.0520231
0.0507
0.0493752
0.0480684
0.0467739
0.0455219
0.0443105
0.0431383
0.042021
0.0409425
0.0399233
0.0389508
0.0380199
0.0371316
0.036274
0.0354449
0.0346297
0.0338237
0.0330095
0.032199
0.0313753
0.0305262
0.0296359
0.0286774
0.027714
0.0681108
0.067762
0.0672851
0.066704
0.0660313
0.0652745
0.0644327
0.0635128
0.0625182
0.06146
0.0603475
0.0592005
0.0580062
0.0567456
0.0554328
0.054123
0.0528179
0.0515075
0.0502104
0.0489212
0.0476688
0.0464519
0.0452688
0.0441367
0.0430391
0.0419966
0.0409963
0.040039
0.0391219
0.0382336
0.0373718
0.0365223
0.03568
0.0348264
0.0339735
0.0331122
0.0322232
0.0312911
0.0302906
0.0292858
0.0697222
0.0693933
0.0689389
0.0683833
0.067738
0.0670101
0.0661985
0.0653101
0.0643482
0.0633235
0.0622417
0.0611245
0.0599597
0.0587293
0.0574461
0.0561619
0.054878
0.0535857
0.0523027
0.0510235
0.0497759
0.0485588
0.0473709
0.046229
0.0451174
0.0440563
0.043035
0.0420546
0.0411122
0.0401963
0.0393049
0.0384237
0.0375474
0.0366572
0.0357649
0.034866
0.0339384
0.0329661
0.0319253
0.0308811
0.0712702
0.0709593
0.0705274
0.0699967
0.0693781
0.0686784
0.0678966
0.0670392
0.0661093
0.0651168
0.0640671
0.0629807
0.0618463
0.0606471
0.0593954
0.0581405
0.0568797
0.0556088
0.0543439
0.0530788
0.0518404
0.050628
0.0494403
0.0482936
0.0471728
0.0460965
0.0450607
0.0440616
0.0430975
0.0421574
0.0412393
0.0403294
0.0394219
0.0384979
0.0375688
0.0366334
0.0356687
0.034658
0.0335791
0.0324976
0.0727574
0.0724637
0.0720533
0.0715467
0.0709542
0.070282
0.0695295
0.0687029
0.0678053
0.0668436
0.0658258
0.0647709
0.0636689
0.0625005
0.0612807
0.0600556
0.0588216
0.0575757
0.0563342
0.0550861
0.0538605
0.0526572
0.0514747
0.0503275
0.0492025
0.0481174
0.0470698
0.0460557
0.0450734
0.0441125
0.0431711
0.0422354
0.0412997
0.0403446
0.0393814
0.0384105
0.0374109
0.0363643
0.0352494
0.0341332
0.0741864
0.0739092
0.0735194
0.073036
0.0724687
0.0718234
0.0710997
0.0703037
0.069436
0.0685056
0.0675198
0.0664964
0.0654259
0.0642905
0.0631044
0.06191
0.0607049
0.0594855
0.0582687
0.0570444
0.0558351
0.0546449
0.0534727
0.0523278
0.051203
0.0501146
0.0490587
0.0480332
0.0470363
0.0460581
0.0450966
0.0441383
0.0431774
0.0421942
0.0411995
0.0401934
0.0391625
0.0380824
0.0369341
0.0357859
0.0755596
0.0752982
0.0749282
0.0744672
0.0739243
0.0733052
0.0726098
0.0718418
0.0710041
0.0701051
0.069152
0.0681612
0.0671215
0.0660197
0.0648693
0.0637061
0.0625323
0.0613398
0.0601485
0.0589491
0.0577627
0.0565894
0.0554282
0.0542911
0.0531714
0.0520857
0.0510246
0.049991
0.048983
0.0479909
0.0470127
0.0460351
0.045052
0.0440438
0.0430206
0.0419829
0.0409215
0.0398102
0.0386309
0.0374535
0.0768791
0.0766329
0.0762819
0.0758426
0.0753235
0.0747301
0.0740605
0.0733202
0.0725123
0.0716448
0.0707248
0.0697647
0.0687571
0.0676893
0.0665738
0.0654439
0.0643016
0.0631393
0.0619752
0.0608016
0.0596386
0.0584854
0.0573406
0.0562159
0.0551056
0.0540247
0.0529644
0.0519265
0.050911
0.0499084
0.0489168
0.0479231
0.0469209
0.0458907
0.044842
0.0437758
0.0426854
0.0415454
0.0403378
0.0391344
0.0781468
0.0779153
0.0775828
0.0771644
0.0766686
0.0760984
0.0754545
0.074742
0.0739636
0.0731267
0.0722383
0.0713102
0.0703355
0.0693032
0.0682221
0.0671273
0.0660165
0.064887
0.0637511
0.0626045
0.0614664
0.0603357
0.0592109
0.0581024
0.0570059
0.0559316
0.0548774
0.0538381
0.0528184
0.0518087
0.050807
0.0498003
0.0487821
0.0477329
0.0466616
0.0455697
0.0444516
0.043286
0.042053
0.0408267
0.0793638
0.0791471
0.0788334
0.0784351
0.07796
0.077413
0.0767947
0.0761099
0.0753619
0.0745555
0.0736973
0.0728008
0.0718597
0.0708608
0.0698151
0.0687548
0.0676776
0.0665813
0.065478
0.0643599
0.0632485
0.0621425
0.0610411
0.0599511
0.058868
0.0578046
0.0567586
0.055724
0.0547039
0.0536905
0.0526818
0.0516652
0.0506339
0.0495684
0.0484774
0.0473627
0.0462207
0.0450309
0.0437748
0.0425289
0.0805323
0.0803291
0.0800324
0.0796536
0.0791998
0.0786761
0.0780832
0.0774262
0.076706
0.0759297
0.075103
0.0742391
0.0733298
0.0723658
0.0713572
0.0703311
0.0692891
0.0682253
0.0671542
0.0660693
0.0649872
0.0639072
0.0628277
0.0617579
0.0606929
0.0596444
0.0586097
0.0575848
0.0565672
0.0555529
0.0545404
0.0535168
0.052475
0.0513957
0.0502876
0.0491531
0.0479899
0.0467783
0.0455016
0.0442394
0.0816551
0.0814648
0.0811844
0.0808244
0.0803917
0.079891
0.0793234
0.0786919
0.0779997
0.0772534
0.0764588
0.0756256
0.0747491
0.0738209
0.0728478
0.0718582
0.0708504
0.069822
0.068783
0.0677304
0.0666785
0.0656269
0.064573
0.063526
0.0624823
0.0614532
0.0604312
0.0594168
0.0584079
0.0573956
0.0563823
0.0553547
0.0543049
0.0532136
0.0520907
0.0509391
0.0497574
0.0485263
0.047232
0.045957
0.082735
0.0825569
0.0822922
0.0819508
0.0815394
0.0810608
0.0805163
0.0799105
0.0792462
0.0785302
0.0777657
0.0769638
0.0761208
0.0752266
0.0742904
0.0733355
0.0723644
0.0713709
0.0703677
0.0693489
0.0683274
0.0673068
0.0662808
0.0652576
0.0642384
0.0632285
0.0622244
0.0612216
0.0602222
0.0592181
0.0582076
0.0571786
0.0561231
0.0550206
0.0538854
0.0527197
0.0515215
0.0502737
0.0489647
0.0476806
0.0837739
0.0836073
0.0833577
0.0830345
0.0826422
0.0821852
0.0816647
0.0810855
0.0804488
0.0797612
0.079028
0.0782574
0.077446
0.0765869
0.0756855
0.0747663
0.0738313
0.0728755
0.071907
0.0709234
0.0699363
0.0689452
0.0679481
0.0669539
0.0659591
0.0649725
0.0639865
0.0630007
0.0620121
0.0610164
0.0600109
0.0589828
0.0579238
0.0568147
0.0556704
0.0544941
0.0532808
0.0520193
0.0506987
0.0494091
0.0847738
0.0846179
0.0843822
0.084076
0.0837034
0.0832687
0.0827716
0.0822168
0.0816072
0.080949
0.0802453
0.0795061
0.0787284
0.0779032
0.0770381
0.0761563
0.0752565
0.0743375
0.0734067
0.0724594
0.0715062
0.070547
0.0695792
0.0686142
0.0676478
0.0666839
0.0657206
0.0647517
0.0637795
0.0627937
0.0617951
0.0607699
0.0597083
0.0585955
0.057445
0.0562601
0.0550333
0.0537626
0.0524335
0.0511419
0.0857366
0.0855908
0.0853686
0.0850788
0.0847257
0.0843115
0.0838376
0.0833087
0.0827261
0.0820957
0.0814221
0.0807153
0.07997
0.0791811
0.0783531
0.0775071
0.0766451
0.0757628
0.074867
0.0739566
0.0730369
0.072111
0.0711776
0.0702437
0.0693048
0.0683662
0.0674258
0.0664776
0.065523
0.0645522
0.0635631
0.0625423
0.0614768
0.0603633
0.0592094
0.0580184
0.0567828
0.0555047
0.054169
0.0528785
0.0866653
0.0865291
0.0863196
0.0860453
0.0857106
0.0853181
0.0848672
0.0843625
0.0838068
0.0832062
0.0825631
0.0818868
0.0811752
0.080421
0.0796313
0.078823
0.0779981
0.077152
0.0762936
0.0754183
0.0745349
0.0736425
0.0727434
0.0718423
0.0709354
0.070025
0.0691078
0.0681832
0.0672471
0.0662898
0.0653115
0.0642971
0.0632327
0.0621194
0.0609639
0.0597693
0.0585281
0.0572463
0.0559048
0.0546185
0.0875636
0.0874362
0.0872386
0.0869788
0.0866615
0.0862893
0.0858624
0.0853831
0.0848543
0.0842817
0.0836701
0.0830256
0.0823463
0.0816281
0.0808749
0.0801053
0.0793174
0.0785112
0.0776892
0.07685
0.0760019
0.075147
0.0742843
0.0734169
0.0725399
0.07166
0.0707695
0.069868
0.0689501
0.0680104
0.0670445
0.0660378
0.0649756
0.0638643
0.0627094
0.0615133
0.0602688
0.0589835
0.0576401
0.0563613
0.0884359
0.0883167
0.0881301
0.0878839
0.0875827
0.0872296
0.0868251
0.0863717
0.0858705
0.0853269
0.0847454
0.084134
0.0834885
0.082806
0.0820901
0.0813583
0.0806087
0.0798382
0.0790544
0.0782524
0.077443
0.0766248
0.0758006
0.0749685
0.0741237
0.0732721
0.0724101
0.0715318
0.0706362
0.069713
0.0687599
0.067761
0.0667053
0.0655988
0.0644467
0.0632512
0.0620056
0.060718
0.059375
0.058107
0.0892871
0.0891755
0.0889991
0.0887656
0.0884796
0.0881444
0.0877607
0.0873315
0.0868577
0.0863447
0.0857946
0.0852157
0.084604
0.0839563
0.0832786
0.0825842
0.0818711
0.0811396
0.0803938
0.079632
0.078861
0.0780826
0.0772957
0.076499
0.0756878
0.0748671
0.0740319
0.07318
0.0723057
0.0714028
0.0704632
0.0694698
0.0684234
0.0673243
0.066177
0.0649843
0.0637398
0.0624512
0.0611101
0.0598558
0.0901226
0.090018
0.0898511
0.0896296
0.089358
0.0890398
0.0886761
0.0882702
0.0878236
0.0873399
0.0868209
0.0862738
0.0856975
0.0850871
0.0844457
0.0837884
0.0831133
0.08242
0.081715
0.080993
0.0802632
0.0795238
0.0787724
0.0780107
0.0772337
0.0764466
0.075641
0.0748138
0.0739639
0.0730802
0.0721533
0.0711697
0.0701331
0.0690426
0.067902
0.0667137
0.0654731
0.0641839
0.0628462
0.0616078
0.090948
0.0908498
0.0906919
0.0904817
0.090224
0.089922
0.0895774
0.0891933
0.0887718
0.0883162
0.0878293
0.0873159
0.0867731
0.0861986
0.0855945
0.0849745
0.0843387
0.0836871
0.0830227
0.0823432
0.0816538
0.0809534
0.0802393
0.0795133
0.0787702
0.0780133
0.077239
0.0764387
0.0756115
0.0747454
0.073834
0.0728615
0.0718361
0.0707557
0.0696232
0.0684408
0.0672041
0.0659168
0.064584
0.0633636
0.0917691
0.0916769
0.0915275
0.0913284
0.0910841
0.0907979
0.0904717
0.0901086
0.0897109
0.089282
0.0888244
0.0883432
0.0878355
0.0872967
0.0867312
0.086152
0.0855571
0.0849461
0.0843254
0.0836871
0.0830363
0.0823744
0.081698
0.0810081
0.0802991
0.0795736
0.0788284
0.0780549
0.0772493
0.0764036
0.0755038
0.0745464
0.0735343
0.0724657
0.0713427
0.0701673
0.0689353
0.0676509
0.0663243
0.0651235
0.092592
0.0925055
0.0923645
0.0921762
0.0919451
0.0916746
0.0913665
0.0910241
0.0906497
0.0902465
0.0898174
0.089367
0.0888932
0.0883922
0.0878659
0.0873259
0.086773
0.0862042
0.0856226
0.0850226
0.0844125
0.0837898
0.0831511
0.0824972
0.0818223
0.0811282
0.0804101
0.0796644
0.0788825
0.0780559
0.0771699
0.0762276
0.0752301
0.0741746
0.0730624
0.071895
0.0706684
0.0693878
0.068068
0.0668881
0.0934231
0.0933421
0.0932093
0.0930317
0.0928139
0.0925591
0.0922693
0.0919475
0.0915961
0.0912184
0.090817
0.0903966
0.0899554
0.0894901
0.0890035
0.0885043
0.0879915
0.0874616
0.0869194
0.0863589
0.085788
0.0852035
0.0846019
0.0839834
0.0833423
0.0826797
0.08199
0.0812687
0.0805112
0.0797015
0.0788327
0.0779074
0.0769258
0.0758845
0.0747842
0.0736257
0.072405
0.0711286
0.0698161
0.0686578
0.0942689
0.0941933
0.0940687
0.093902
0.0936975
0.0934586
0.0931872
0.0928862
0.092558
0.0922056
0.0918317
0.0914406
0.0910307
0.0905992
0.0901485
0.0896866
0.0892122
0.0887226
0.0882199
0.0876989
0.0871664
0.0866192
0.0860537
0.0854696
0.0848611
0.0842299
0.083569
0.0828733
0.0821378
0.0813436
0.0804948
0.0795881
0.0786234
0.0775973
0.0765099
0.0753608
0.0741462
0.0728743
0.0715693
0.0704327
0.0951362
0.0950659
0.0949495
0.0947937
0.0946029
0.0943801
0.0941272
0.0938473
0.0935423
0.0932153
0.0928686
0.0925065
0.0921274
0.0917284
0.0913118
0.0908849
0.0904465
0.0899939
0.0895287
0.0890468
0.0885516
0.0880402
0.0875092
0.0869581
0.0863801
0.0857802
0.0851477
0.0844775
0.0837628
0.0829886
0.0821597
0.0812721
0.080325
0.0793147
0.0782415
0.0771016
0.0758927
0.0746255
0.0733281
0.0722132
0.0960315
0.0959665
0.0958583
0.0957136
0.0955364
0.09533
0.095096
0.0948373
0.0945557
0.094254
0.0939345
0.0936011
0.093252
0.0928847
0.0925009
0.0921076
0.0917032
0.0912851
0.0908547
0.0904079
0.0899471
0.0894692
0.088971
0.0884517
0.0879056
0.0873329
0.086727
0.0860819
0.0853902
0.0846378
0.0838295
0.0829612
0.0820318
0.0810377
0.0799806
0.0788487
0.0776442
0.0763828
0.0750929
0.073999
0.096961
0.0969012
0.0968012
0.0966676
0.0965044
0.0963145
0.0960995
0.0958619
0.0956037
0.0953273
0.0950347
0.0947294
0.0944099
0.0940733
0.0937213
0.09336
0.092988
0.0926025
0.0922046
0.0917903
0.0913614
0.0909147
0.090447
0.0899572
0.0894397
0.0888939
0.0883135
0.0876926
0.0870238
0.0862933
0.0855056
0.0846565
0.0837448
0.0827665
0.0817233
0.0806014
0.0794033
0.0781469
0.0768638
0.0757897
0.0979302
0.0978755
0.0977838
0.0976614
0.097512
0.0973386
0.0971425
0.0969261
0.0966909
0.0964394
0.0961732
0.0958955
0.0956046
0.0952976
0.0949761
0.0946454
0.0943041
0.0939494
0.093582
0.0931978
0.0927985
0.0923808
0.0919412
0.0914786
0.0909875
0.0904668
0.0899104
0.0893125
0.0886656
0.0879563
0.0871887
0.0863584
0.0854639
0.084501
0.083471
0.0823595
0.0811687
0.0799171
0.0786403
0.0775848
0.0989438
0.0988941
0.0988105
0.0986991
0.0985635
0.0984063
0.0982288
0.0980332
0.0978206
0.0975933
0.0973526
0.0971015
0.0968381
0.0965595
0.0962669
0.0959652
0.0956527
0.0953268
0.0949877
0.0946316
0.0942597
0.0938686
0.0934549
0.0930173
0.0925504
0.0920529
0.0915188
0.0909423
0.090316
0.089627
0.0888786
0.0880664
0.0871886
0.0862407
0.0852235
0.0841225
0.0829393
0.0816927
0.0804216
0.079383
0.100005
0.09996
0.0998843
0.0997837
0.0996616
0.0995202
0.0993608
0.0991852
0.0989944
0.0987903
0.0985741
0.0983482
0.0981108
0.097859
0.0975934
0.0973188
0.0970332
0.0967339
0.096421
0.0960907
0.0957438
0.0953771
0.0949871
0.0945724
0.0941276
0.0936514
0.0931378
0.0925812
0.0919742
0.0913042
0.090574
0.0897792
0.0889175
0.0879845
0.0869798
0.0858891
0.0847137
0.0834722
0.0822064
0.0811831
0.101115
0.101075
0.101007
0.100916
0.100807
0.100681
0.100539
0.100382
0.100212
0.10003
0.0998368
0.0996346
0.0994214
0.0991944
0.0989539
0.0987042
0.0984432
0.0981683
0.0978793
0.0975724
0.0972483
0.0969037
0.0965352
0.0961413
0.0957167
0.0952599
0.0947651
0.0942268
0.0936377
0.0929856
0.0922728
0.0914946
0.0906488
0.0897304
0.0887382
0.0876577
0.0864901
0.0852538
0.083993
0.0829834
0.102274
0.102238
0.102177
0.102097
0.102
0.101888
0.101762
0.101623
0.101472
0.10131
0.101138
0.100958
0.100767
0.100563
0.100345
0.100118
0.0998791
0.0996262
0.0993588
0.099073
0.0987694
0.0984447
0.0980956
0.0977204
0.0973141
0.096875
0.0963975
0.0958761
0.0953037
0.0946685
0.0939721
0.09321
0.0923796
0.0914764
0.0904961
0.0894257
0.0882661
0.0870354
0.0857794
0.0847819
0.103479
0.103447
0.103393
0.103322
0.103237
0.103138
0.103027
0.102904
0.102771
0.102628
0.102475
0.102314
0.102143
0.101959
0.101762
0.101555
0.101336
0.101103
0.100855
0.100588
0.100302
0.0999955
0.0996637
0.0993054
0.0989156
0.0984926
0.0980309
0.0975252
0.0969685
0.0963493
0.0956686
0.0949219
0.0941067
0.0932205
0.0922507
0.0911902
0.090039
0.0888143
0.0875632
0.0865762
0.104727
0.104699
0.104651
0.104588
0.104513
0.104426
0.104329
0.104221
0.104103
0.103976
0.103841
0.103697
0.103544
0.103378
0.103199
0.10301
0.102809
0.102592
0.102361
0.102111
0.101842
0.101551
0.101235
0.100891
0.100517
0.100108
0.0996611
0.09917
0.0986282
0.0980243
0.0973588
0.096627
0.0958263
0.0949544
0.093997
0.0929475
0.0918057
0.0905879
0.0893419
0.0883641
0.106012
0.105987
0.105945
0.105889
0.105823
0.105747
0.105661
0.105566
0.105463
0.10535
0.105229
0.105101
0.104963
0.104813
0.10465
0.104476
0.10429
0.104089
0.103873
0.103637
0.103382
0.103105
0.102803
0.102473
0.102112
0.101717
0.101284
0.100806
0.100279
0.0996897
0.099039
0.0983216
0.0975349
0.0966766
0.0957321
0.0946946
0.0935631
0.0923532
0.091113
0.0901432
0.107326
0.107304
0.107266
0.107218
0.107159
0.107093
0.107017
0.106934
0.106842
0.106742
0.106634
0.106519
0.106394
0.106257
0.106108
0.105947
0.105775
0.105587
0.105383
0.10516
0.104918
0.104653
0.104364
0.104046
0.103697
0.103315
0.102894
0.10243
0.101916
0.101342
0.100706
0.100002
0.0992292
0.0983844
0.0974532
0.0964284
0.0953081
0.0941073
0.0928737
0.0919109
0.108661
0.108642
0.108609
0.108565
0.108514
0.108455
0.108389
0.108315
0.108233
0.108144
0.108047
0.107943
0.10783
0.107704
0.107566
0.107417
0.107256
0.107079
0.106887
0.106675
0.106444
0.10619
0.105912
0.105606
0.105268
0.104897
0.104488
0.104037
0.103536
0.102979
0.102355
0.101665
0.100906
0.100074
0.0991571
0.0981459
0.0970376
0.0958477
0.0946217
0.093665
0.110009
0.109992
0.109963
0.109924
0.109879
0.109827
0.109768
0.109702
0.109629
0.109549
0.109461
0.109366
0.109262
0.109146
0.109018
0.108879
0.108727
0.10856
0.108378
0.108176
0.107955
0.107711
0.107442
0.107147
0.10682
0.10646
0.106062
0.105623
0.105135
0.104592
0.103982
0.103306
0.102561
0.101743
0.100841
0.0998445
0.0987501
0.0975721
0.0963546
0.0954032
0.111362
0.111347
0.11132
0.111286
0.111246
0.111199
0.111147
0.111087
0.111021
0.110949
0.110868
0.110782
0.110685
0.110578
0.110458
0.110327
0.110184
0.110025
0.109851
0.109658
0.109446
0.109211
0.108952
0.108666
0.108349
0.108
0.107613
0.107185
0.10671
0.10618
0.105584
0.104923
0.104193
0.103388
0.102502
0.101522
0.100443
0.0992782
0.0980701
0.0971235
0.112711
0.112697
0.112674
0.112643
0.112607
0.112565
0.112517
0.112464
0.112404
0.112337
0.112264
0.112183
0.112094
0.111993
0.11188
0.111756
0.11162
0.111469
0.111303
0.111118
0.110913
0.110687
0.110437
0.11016
0.109853
0.109514
0.109137
0.108721
0.108258
0.107741
0.10716
0.106514
0.1058
0.10501
0.104139
0.103175
0.102114
0.100964
0.0997663
0.0988238
0.11405
0.114037
0.114016
0.113988
0.113955
0.113918
0.113874
0.113825
0.11377
0.113709
0.11364
0.113565
0.113482
0.113387
0.11328
0.113163
0.113033
0.112889
0.112729
0.112551
0.112354
0.112136
0.111894
0.111626
0.111328
0.110999
0.110633
0.110227
0.109777
0.109273
0.108707
0.108077
0.107379
0.106605
0.105749
0.104803
0.103761
0.102627
0.101441
0.100502
0.115372
0.115361
0.115341
0.115316
0.115286
0.115251
0.115212
0.115167
0.115116
0.115059
0.114995
0.114924
0.114845
0.114755
0.114654
0.114542
0.114419
0.11428
0.114127
0.113956
0.113766
0.113556
0.113321
0.113062
0.112773
0.112453
0.112098
0.111704
0.111265
0.110775
0.110224
0.10961
0.108928
0.108171
0.107333
0.106405
0.105385
0.104267
0.103093
0.102157
0.116673
0.116662
0.116644
0.116621
0.116593
0.116562