/*--------------------------------*- C++ -*----------------------------------*\
| =========                 |                                                 |
| \\      /  F ield         | OpenFOAM: The Open Source CFD Toolbox           |
|  \\    /   O peration     | Version:  5.x                                   |
|   \\  /    A nd           | Web:      www.OpenFOAM.org                      |
|    \\/     M anipulation  |                                                 |
\*---------------------------------------------------------------------------*/
FoamFile
{
    version     2.0;
    format      ascii;
    class       volScalarField;
    location    "200";
    object      p;
}
// * * * * * * * * * * * * * * * * * * * * * * * * * * * * * * * * * * * * * //

dimensions      [0 2 -2 0 0 0 0];

internalField   nonuniform List<scalar> 
26000
(
-0.000139415
0.0127003
-0.224684
-0.531456
-0.810531
-1.04447
-1.23706
-1.40185
-1.5357
-1.65147
-1.75023
-1.83425
-1.91396
-1.96501
-2.02249
-2.08064
-2.12526
-2.16369
-2.19713
-2.22773
-2.25488
-2.27812
-2.29904
-2.31717
-2.33311
-2.34731
-2.3596
-2.37049
-2.37965
-2.38717
-2.3937
-2.39889
-2.40321
-2.40626
-2.4085
-2.40986
-2.4105
-2.40992
-2.40951
-2.40153
-0.473388
-0.328946
-0.329447
-0.432654
-0.597654
-0.788346
-0.981965
-1.16289
-1.32551
-1.46619
-1.5879
-1.68946
-1.78334
-1.8623
-1.93118
-1.99292
-2.0481
-2.09568
-2.13662
-2.17343
-2.20535
-2.23375
-2.25872
-2.28058
-2.30006
-2.31696
-2.332
-2.34501
-2.35622
-2.36566
-2.37372
-2.38051
-2.38608
-2.3905
-2.39381
-2.39626
-2.39779
-2.39845
-2.39881
-2.39335
-0.8209
-0.67906
-0.590643
-0.579892
-0.644864
-0.762802
-0.913146
-1.07326
-1.23104
-1.37569
-1.50462
-1.61482
-1.71287
-1.8025
-1.87874
-1.94527
-2.00467
-2.05728
-2.10234
-2.1424
-2.17756
-2.20835
-2.23571
-2.25959
-2.28076
-2.29932
-2.3156
-2.32991
-2.34227
-2.35281
-2.36181
-2.36942
-2.37577
-2.38088
-2.38487
-2.38788
-2.38998
-2.39105
-2.39161
-2.38828
-0.995787
-0.894442
-0.805461
-0.753264
-0.753031
-0.802621
-0.895936
-1.01634
-1.15164
-1.28732
-1.41559
-1.53004
-1.63287
-1.73049
-1.81541
-1.88795
-1.95211
-2.00983
-2.05975
-2.10411
-2.14295
-2.1769
-2.20719
-2.23363
-2.25709
-2.27766
-2.29565
-2.31155
-2.3253
-2.33716
-2.3473
-2.35593
-2.36319
-2.36913
-2.3739
-2.37758
-2.38031
-2.38194
-2.38305
-2.38115
-1.1304
-1.05513
-0.979547
-0.91833
-0.886085
-0.889311
-0.932399
-1.00837
-1.11029
-1.22538
-1.34331
-1.45554
-1.55875
-1.66051
-1.75184
-1.83036
-1.89918
-1.96162
-2.01613
-2.06473
-2.10735
-2.14454
-2.17783
-2.20692
-2.23273
-2.25539
-2.27517
-2.29271
-2.30792
-2.32114
-2.33249
-2.34218
-2.35041
-2.35721
-2.36277
-2.36714
-2.37053
-2.37275
-2.37439
-2.37362
-1.23574
-1.1784
-1.11716
-1.06011
-1.01717
-0.995716
-1.00389
-1.04175
-1.10835
-1.196
-1.29519
-1.39787
-1.49587
-1.59699
-1.691
-1.77387
-1.84667
-1.91326
-1.97188
-2.02446
-2.07082
-2.11125
-2.14758
-2.17937
-2.20757
-2.23241
-2.25405
-2.27331
-2.29002
-2.30462
-2.31723
-2.32804
-2.33728
-2.34499
-2.35138
-2.35648
-2.36053
-2.36339
-2.36557
-2.36576
-1.32074
-1.27587
-1.22666
-1.17761
-1.13457
-1.10318
-1.09114
-1.10172
-1.13792
-1.19739
-1.27344
-1.36083
-1.44822
-1.5437
-1.63618
-1.72078
-1.79607
-1.86585
-1.92786
-1.98392
-2.03377
-2.07732
-2.11663
-2.1511
-2.18172
-2.20879
-2.23236
-2.25338
-2.27165
-2.28768
-2.30157
-2.31353
-2.32383
-2.33247
-2.33973
-2.3456
-2.35033
-2.35384
-2.35659
-2.3576
-1.39119
-1.35531
-1.31547
-1.27442
-1.23542
-1.20217
-1.18053
-1.17437
-1.18815
-1.22329
-1.27619
-1.34546
-1.41846
-1.50391
-1.59064
-1.67372
-1.74925
-1.82073
-1.88512
-1.94393
-1.9968
-2.04319
-2.08532
-2.12237
-2.15538
-2.18466
-2.21017
-2.233
-2.25287
-2.27035
-2.28556
-2.2987
-2.31007
-2.31968
-2.32784
-2.3345
-2.33995
-2.34412
-2.34747
-2.34922
-1.45078
-1.4216
-1.38898
-1.35483
-1.32093
-1.2896
-1.26483
-1.24989
-1.24914
-1.26583
-1.2987
-1.3499
-1.40699
-1.47938
-1.55678
-1.6351
-1.70831
-1.77958
-1.84497
-1.90549
-1.96069
-2.00944
-2.05407
-2.09353
-2.1288
-2.16024
-2.18766
-2.21228
-2.23375
-2.25271
-2.26927
-2.2836
-2.29607
-2.30666
-2.31573
-2.3232
-2.32939
-2.33425
-2.33821
-2.34064
-1.50191
-1.47787
-1.45087
-1.4224
-1.39342
-1.36539
-1.34091
-1.32238
-1.31335
-1.31748
-1.33486
-1.3701
-1.41188
-1.47003
-1.53581
-1.60668
-1.67508
-1.74399
-1.80874
-1.86969
-1.9263
-1.97676
-2.02342
-2.06496
-2.10228
-2.13574
-2.165
-2.19137
-2.21442
-2.23484
-2.25274
-2.26829
-2.28187
-2.29345
-2.30343
-2.31173
-2.31867
-2.32422
-2.32882
-2.3319
-1.5463
-1.52629
-1.50374
-1.47988
-1.45525
-1.43078
-1.40813
-1.38899
-1.37595
-1.37237
-1.37887
-1.40128
-1.42984
-1.47423
-1.52755
-1.58919
-1.65075
-1.71529
-1.7777
-1.83764
-1.89454
-1.94588
-1.99396
-2.03715
-2.0762
-2.11146
-2.14241
-2.17043
-2.19501
-2.21686
-2.23607
-2.25282
-2.26751
-2.28008
-2.29098
-2.30011
-2.30782
-2.31407
-2.31931
-2.32301
-1.58521
-1.56841
-1.54944
-1.52934
-1.50841
-1.48728
-1.46702
-1.44879
-1.43439
-1.42659
-1.4261
-1.43895
-1.45701
-1.48929
-1.53063
-1.58228
-1.63575
-1.69433
-1.75281
-1.81031
-1.8663
-1.91756
-1.96629
-2.01057
-2.05094
-2.08771
-2.12014
-2.14967
-2.17566
-2.19886
-2.21935
-2.23727
-2.25306
-2.26661
-2.27842
-2.28838
-2.29685
-2.3038
-2.3097
-2.314
-1.61958
-1.60538
-1.58931
-1.5723
-1.55448
-1.53633
-1.51853
-1.50187
-1.4876
-1.47788
-1.47329
-1.47948
-1.48977
-1.51214
-1.54288
-1.58476
-1.62971
-1.6813
-1.73461
-1.7884
-1.84231
-1.89249
-1.94104
-1.98576
-2.02693
-2.06482
-2.09846
-2.12929
-2.15656
-2.18101
-2.20269
-2.22173
-2.23857
-2.25309
-2.2658
-2.27657
-2.28579
-2.29344
-2.29999
-2.30488
-1.65016
-1.63809
-1.62441
-1.60994
-1.59474
-1.57917
-1.56366
-1.5488
-1.53541
-1.52516
-1.51847
-1.52026
-1.52516
-1.53992
-1.56189
-1.59487
-1.63159
-1.6758
-1.72317
-1.77228
-1.82304
-1.8712
-1.91872
-1.96318
-2.00459
-2.04316
-2.07766
-2.10953
-2.13789
-2.16344
-2.18622
-2.2063
-2.22413
-2.23958
-2.25315
-2.26472
-2.27468
-2.28302
-2.29021
-2.29567
-1.67752
-1.66721
-1.65552
-1.64316
-1.63017
-1.61681
-1.60336
-1.59028
-1.57811
-1.56811
-1.56059
-1.55966
-1.56102
-1.5702
-1.58533
-1.61067
-1.63993
-1.67694
-1.71807
-1.76191
-1.80873
-1.85406
-1.89975
-1.94325
-1.98429
-2.02304
-2.05802
-2.09062
-2.11983
-2.14631
-2.17004
-2.19107
-2.20982
-2.22614
-2.24054
-2.25288
-2.26355
-2.27255
-2.28038
-2.2864
-1.70212
-1.69329
-1.68326
-1.67268
-1.66154
-1.65007
-1.63845
-1.62702
-1.61616
-1.60683
-1.59923
-1.59674
-1.59593
-1.6012
-1.61122
-1.63031
-1.65317
-1.68356
-1.71858
-1.75694
-1.79929
-1.84119
-1.88436
-1.92624
-1.96633
-2.00475
-2.0398
-2.07279
-2.10259
-2.12979
-2.15431
-2.17615
-2.19573
-2.21284
-2.22802
-2.24108
-2.25244
-2.26208
-2.27052
-2.27708
-1.72434
-1.71676
-1.70813
-1.69904
-1.68948
-1.67963
-1.6696
-1.65966
-1.65008
-1.6416
-1.63436
-1.63107
-1.62902
-1.63166
-1.63802
-1.6522
-1.6698
-1.69437
-1.72372
-1.75673
-1.7944
-1.83247
-1.87261
-1.91232
-1.95094
-1.98853
-2.02323
-2.05624
-2.08634
-2.11402
-2.13915
-2.16166
-2.18194
-2.19977
-2.21565
-2.22939
-2.24139
-2.25163
-2.26066
-2.26774
-1.7445
-1.73796
-1.73052
-1.72271
-1.71449
-1.70602
-1.69737
-1.68876
-1.68038
-1.6728
-1.66613
-1.66254
-1.65988
-1.66082
-1.66465
-1.67507
-1.68849
-1.70816
-1.73247
-1.7605
-1.79353
-1.82762
-1.8644
-1.90152
-1.9382
-1.97452
-2.00846
-2.04114
-2.07123
-2.09914
-2.12467
-2.14769
-2.16855
-2.18699
-2.20348
-2.21783
-2.23042
-2.24124
-2.25081
-2.25839
-1.76283
-1.7572
-1.75077
-1.74405
-1.73697
-1.72969
-1.72224
-1.71479
-1.7075
-1.7008
-1.6948
-1.69121
-1.68835
-1.68824
-1.69037
-1.69799
-1.70819
-1.72385
-1.74382
-1.7674
-1.79603
-1.8262
-1.85946
-1.89371
-1.92813
-1.96278
-1.99562
-2.02761
-2.0574
-2.08527
-2.11099
-2.13434
-2.15563
-2.17456
-2.19159
-2.20647
-2.2196
-2.23093
-2.24102
-2.24906
-1.77956
-1.7747
-1.76915
-1.76336
-1.75727
-1.751
-1.74459
-1.73817
-1.73185
-1.72598
-1.72066
-1.71725
-1.71442
-1.71371
-1.71476
-1.72033
-1.7281
-1.74055
-1.7569
-1.77661
-1.80122
-1.82766
-1.85743
-1.88869
-1.92061
-1.95331
-1.98472
-2.01573
-2.04493
-2.07252
-2.0982
-2.12169
-2.14327
-2.16256
-2.18001
-2.19536
-2.20895
-2.22075
-2.2313
-2.23977
-1.79486
-1.79067
-1.78588
-1.78089
-1.77565
-1.77027
-1.76475
-1.75922
-1.75377
-1.74867
-1.74401
-1.74087
-1.73822
-1.73721
-1.73758
-1.74168
-1.74764
-1.75757
-1.77096
-1.78741
-1.80844
-1.83146
-1.85787
-1.88613
-1.91545
-1.946
-1.97576
-2.00551
-2.03387
-2.06094
-2.08637
-2.10982
-2.13152
-2.15105
-2.16881
-2.18452
-2.19851
-2.21072
-2.22168
-2.23054
-1.80889
-1.80529
-1.80115
-1.79686
-1.79235
-1.78773
-1.78299
-1.77825
-1.77356
-1.76915
-1.7651
-1.76228
-1.75989
-1.75877
-1.75876
-1.76182
-1.76646
-1.77443
-1.78544
-1.79917
-1.8171
-1.83706
-1.86035
-1.88571
-1.91242
-1.9407
-1.96864
-1.99694
-2.02423
-2.05056
-2.07554
-2.09878
-2.12044
-2.14008
-2.15804
-2.17402
-2.18832
-2.20087
-2.21218
-2.2214
-1.82179
-1.81869
-1.81513
-1.81144
-1.80757
-1.80361
-1.79955
-1.79548
-1.79146
-1.78768
-1.78419
-1.78171
-1.7796
-1.7785
-1.7783
-1.78062
-1.7843
-1.79078
-1.79988
-1.81139
-1.82668
-1.84395
-1.86441
-1.88704
-1.91122
-1.93721
-1.96323
-1.98993
-2.01599
-2.0414
-2.06575
-2.0886
-2.11007
-2.12968
-2.14772
-2.16388
-2.17842
-2.19123
-2.20284
-2.21236
-1.83366
-1.831
-1.82794
-1.82478
-1.82147
-1.81808
-1.81461
-1.81114
-1.80771
-1.80447
-1.8015
-1.79935
-1.79754
-1.79652
-1.79626
-1.79808
-1.80106
-1.8064
-1.814
-1.82371
-1.83677
-1.85172
-1.86965
-1.88977
-1.91155
-1.93528
-1.95937
-1.98437
-2.00908
-2.03343
-2.05699
-2.0793
-2.10044
-2.11989
-2.1379
-2.15414
-2.16882
-2.18184
-2.19368
-2.20344
-1.8446
-1.84233
-1.83971
-1.83701
-1.83418
-1.8313
-1.82835
-1.8254
-1.82249
-1.81974
-1.81722
-1.81538
-1.81386
-1.81298
-1.81273
-1.8142
-1.81669
-1.82116
-1.82757
-1.83583
-1.84704
-1.86001
-1.87573
-1.89358
-1.91313
-1.9347
-1.95687
-1.98014
-2.00341
-2.02658
-2.04923
-2.07088
-2.09155
-2.11072
-2.12859
-2.14481
-2.15956
-2.17271
-2.18471
-2.19467
-1.85471
-1.85278
-1.85054
-1.84825
-1.84584
-1.84339
-1.8409
-1.8384
-1.83594
-1.83362
-1.83152
-1.82997
-1.82873
-1.82799
-1.8278
-1.82905
-1.83119
-1.83499
-1.84047
-1.84757
-1.85723
-1.86854
-1.88232
-1.89815
-1.91567
-1.93521
-1.95553
-1.97708
-1.99888
-2.0208
-2.04244
-2.06331
-2.0834
-2.10219
-2.11982
-2.13593
-2.15065
-2.16385
-2.17596
-2.18606
-1.86405
-1.86242
-1.86052
-1.85858
-1.85655
-1.85449
-1.85238
-1.85028
-1.84823
-1.84629
-1.84454
-1.84326
-1.84227
-1.8417
-1.8416
-1.84269
-1.84458
-1.84788
-1.85262
-1.85879
-1.86718
-1.87707
-1.88921
-1.90325
-1.91894
-1.9366
-1.95516
-1.97504
-1.99536
-2.01599
-2.03655
-2.05656
-2.07598
-2.09429
-2.11158
-2.12749
-2.14212
-2.1553
-2.16744
-2.17763
-1.87269
-1.87133
-1.86973
-1.8681
-1.8664
-1.86467
-1.86291
-1.86116
-1.85945
-1.85785
-1.85642
-1.85539
-1.85463
-1.85421
-1.85421
-1.85521
-1.85693
-1.85983
-1.864
-1.86941
-1.87675
-1.88546
-1.89618
-1.90866
-1.92272
-1.93865
-1.95558
-1.97386
-1.99272
-2.01205
-2.03149
-2.05058
-2.06926
-2.087
-2.10388
-2.1195
-2.13396
-2.14706
-2.15916
-2.16939
-1.8807
-1.87957
-1.87824
-1.87688
-1.87546
-1.87403
-1.87258
-1.87113
-1.86973
-1.86842
-1.86727
-1.86646
-1.86591
-1.86564
-1.86574
-1.8667
-1.86829
-1.87089
-1.8746
-1.87939
-1.88587
-1.89359
-1.90309
-1.91422
-1.92682
-1.94121
-1.95662
-1.97339
-1.99085
-2.0089
-2.0272
-2.04533
-2.0632
-2.08031
-2.0967
-2.11197
-2.12618
-2.13913
-2.15114
-2.16136
-1.88813
-1.88721
-1.88611
-1.88499
-1.88382
-1.88265
-1.88146
-1.88028
-1.87914
-1.87809
-1.8772
-1.87658
-1.87621
-1.87608
-1.87629
-1.87722
-1.87872
-1.8811
-1.88443
-1.88873
-1.89449
-1.90137
-1.90984
-1.91979
-1.93112
-1.94411
-1.95813
-1.97349
-1.98962
-2.00641
-2.02359
-2.04073
-2.05776
-2.07419
-2.09003
-2.10488
-2.11878
-2.13152
-2.14339
-2.15353
-1.89502
-1.89428
-1.89339
-1.89248
-1.89153
-1.89059
-1.88963
-1.88868
-1.88778
-1.88696
-1.88628
-1.88584
-1.88563
-1.88563
-1.88593
-1.88685
-1.8883
-1.89049
-1.89353
-1.89742
-1.90258
-1.90876
-1.91634
-1.92527
-1.93548
-1.94722
-1.95999
-1.97404
-1.98891
-2.00451
-2.02057
-2.03673
-2.05289
-2.0686
-2.08384
-2.09823
-2.11177
-2.12424
-2.1359
-2.14593
-1.90142
-1.90084
-1.90013
-1.89941
-1.89865
-1.8979
-1.89715
-1.89641
-1.89571
-1.89509
-1.8946
-1.89432
-1.89425
-1.89437
-1.89476
-1.89568
-1.89708
-1.89913
-1.90192
-1.90547
-1.91013
-1.91571
-1.92254
-1.93059
-1.93982
-1.95045
-1.96208
-1.97494
-1.98863
-2.00308
-2.01807
-2.03325
-2.04854
-2.06351
-2.07811
-2.09199
-2.10512
-2.11728
-2.12869
-2.13855
-1.90736
-1.90693
-1.90637
-1.90582
-1.90523
-1.90466
-1.90408
-1.90352
-1.903
-1.90255
-1.90222
-1.90208
-1.90214
-1.90236
-1.90283
-1.90376
-1.90513
-1.90706
-1.90965
-1.91292
-1.91715
-1.92223
-1.92841
-1.93569
-1.94406
-1.95371
-1.96431
-1.97608
-1.98868
-2.00206
-2.01601
-2.03024
-2.04466
-2.05887
-2.07282
-2.08615
-2.09883
-2.11064
-2.12175
-2.1314
-1.91289
-1.91258
-1.91216
-1.91175
-1.91132
-1.91089
-1.91047
-1.91006
-1.9097
-1.9094
-1.90922
-1.9092
-1.90937
-1.90968
-1.91022
-1.91116
-1.9125
-1.91434
-1.91676
-1.91979
-1.92367
-1.9283
-1.93393
-1.94054
-1.94815
-1.95693
-1.96661
-1.97739
-1.98899
-2.00135
-2.01433
-2.02764
-2.04119
-2.05465
-2.06792
-2.08069
-2.09289
-2.1043
-2.11508
-2.12448
-1.91803
-1.91783
-1.91753
-1.91725
-1.91694
-1.91665
-1.91636
-1.91609
-1.91586
-1.9157
-1.91564
-1.91572
-1.91599
-1.91638
-1.91698
-1.91793
-1.91925
-1.92101
-1.92329
-1.92611
-1.92968
-1.93395
-1.93908
-1.94512
-1.95206
-1.96006
-1.96893
-1.9788
-1.98947
-2.0009
-2.01295
-2.02538
-2.0381
-2.0508
-2.06339
-2.07558
-2.08727
-2.09826
-2.10868
-2.11779
-1.92281
-1.9227
-1.92252
-1.92234
-1.92215
-1.92197
-1.9218
-1.92164
-1.92154
-1.92148
-1.92153
-1.92171
-1.92205
-1.92251
-1.92317
-1.92413
-1.92543
-1.92712
-1.92927
-1.93192
-1.93523
-1.93916
-1.94388
-1.94941
-1.95576
-1.96308
-1.9712
-1.98026
-1.99009
-2.00065
-2.01182
-2.02341
-2.03533
-2.04728
-2.05921
-2.07079
-2.08197
-2.09252
-2.10254
-2.11134
-1.92726
-1.92724
-1.92715
-1.92706
-1.92696
-1.92688
-1.92681
-1.92676
-1.92676
-1.9268
-1.92694
-1.9272
-1.92761
-1.92813
-1.92883
-1.9298
-1.93108
-1.93271
-1.93476
-1.93725
-1.94033
-1.94398
-1.94832
-1.95341
-1.95924
-1.96595
-1.9734
-1.98173
-1.99078
-2.00054
-2.0109
-2.02169
-2.03283
-2.04407
-2.05532
-2.06632
-2.07696
-2.08705
-2.09666
-2.10512
-1.9314
-1.93145
-1.93144
-1.93144
-1.93143
-1.93143
-1.93145
-1.93149
-1.93156
-1.93169
-1.93191
-1.93224
-1.93271
-1.93328
-1.93401
-1.93499
-1.93625
-1.93783
-1.93978
-1.94213
-1.94501
-1.94841
-1.95243
-1.95711
-1.96249
-1.96865
-1.97551
-1.98317
-1.99151
-2.00053
-2.01014
-2.02018
-2.03058
-2.04112
-2.05172
-2.06212
-2.07223
-2.08184
-2.09102
-2.09912
-1.93526
-1.93538
-1.93543
-1.9355
-1.93556
-1.93563
-1.93573
-1.93584
-1.93599
-1.93619
-1.93648
-1.93686
-1.93738
-1.93799
-1.93875
-1.93973
-1.94098
-1.9425
-1.94437
-1.9466
-1.9493
-1.95247
-1.9562
-1.96054
-1.9655
-1.97117
-1.9775
-1.98455
-1.99226
-2.00059
-2.00949
-2.01883
-2.02854
-2.03841
-2.04837
-2.05818
-2.06775
-2.07689
-2.08563
-2.09335
-1.93886
-1.93902
-1.93914
-1.93926
-1.93938
-1.93952
-1.93968
-1.93985
-1.94007
-1.94033
-1.94067
-1.9411
-1.94166
-1.9423
-1.94309
-1.94407
-1.9453
-1.94677
-1.94856
-1.95068
-1.95322
-1.95619
-1.95967
-1.96369
-1.96828
-1.97352
-1.97936
-1.98587
-1.99298
-2.0007
-2.00895
-2.01762
-2.02667
-2.0359
-2.04524
-2.05448
-2.06352
-2.07217
-2.08047
-2.08781
-1.94221
-1.94242
-1.94258
-1.94276
-1.94293
-1.94312
-1.94333
-1.94356
-1.94383
-1.94414
-1.94453
-1.94499
-1.94559
-1.94625
-1.94706
-1.94804
-1.94924
-1.95067
-1.95239
-1.95441
-1.9568
-1.95959
-1.96284
-1.96658
-1.97084
-1.97569
-1.98108
-1.9871
-1.99368
-2.00082
-2.00846
-2.01652
-2.02495
-2.03357
-2.04232
-2.051
-2.05952
-2.06769
-2.07553
-2.08248
-1.94534
-1.94558
-1.94579
-1.946
-1.94622
-1.94645
-1.9467
-1.94697
-1.94729
-1.94764
-1.94807
-1.94857
-1.94918
-1.94987
-1.95068
-1.95166
-1.95284
-1.95423
-1.95588
-1.9578
-1.96007
-1.96269
-1.96573
-1.96922
-1.97318
-1.97767
-1.98267
-1.98824
-1.99433
-2.00094
-2.00803
-2.01551
-2.02335
-2.03139
-2.03958
-2.04772
-2.05572
-2.06342
-2.07081
-2.07737
-1.94825
-1.94853
-1.94876
-1.94901
-1.94926
-1.94953
-1.94982
-1.95013
-1.95047
-1.95086
-1.95132
-1.95184
-1.95248
-1.95318
-1.954
-1.95497
-1.95612
-1.95747
-1.95905
-1.96089
-1.96304
-1.96551
-1.96836
-1.97162
-1.97531
-1.97948
-1.98412
-1.98928
-1.99492
-2.00105
-2.00762
-2.01457
-2.02186
-2.02936
-2.037
-2.04462
-2.05212
-2.05936
-2.06631
-2.07246
-1.95098
-1.95127
-1.95153
-1.95181
-1.95208
-1.95238
-1.9527
-1.95304
-1.95341
-1.95383
-1.95431
-1.95485
-1.95549
-1.95621
-1.95703
-1.95798
-1.95912
-1.96042
-1.96195
-1.9637
-1.96574
-1.96808
-1.97075
-1.9738
-1.97725
-1.98113
-1.98544
-1.99022
-1.99545
-2.00113
-2.00723
-2.01368
-2.02046
-2.02744
-2.03456
-2.04168
-2.04871
-2.05549
-2.062
-2.06777
-1.95351
-1.95382
-1.95411
-1.9544
-1.9547
-1.95502
-1.95536
-1.95572
-1.95612
-1.95655
-1.95705
-1.95761
-1.95826
-1.95898
-1.95979
-1.96074
-1.96185
-1.96311
-1.96458
-1.96626
-1.96819
-1.9704
-1.97292
-1.97578
-1.979
-1.98261
-1.98662
-1.99107
-1.99592
-2.00119
-2.00684
-2.01284
-2.01913
-2.02562
-2.03226
-2.0389
-2.04547
-2.05181
-2.0579
-2.06327
-1.95589
-1.95621
-1.95651
-1.95682
-1.95713
-1.95747
-1.95782
-1.9582
-1.95861
-1.95906
-1.95957
-1.96014
-1.96079
-1.96151
-1.96232
-1.96325
-1.96433
-1.96556
-1.96697
-1.96857
-1.97041
-1.9725
-1.97488
-1.97756
-1.98057
-1.98395
-1.98768
-1.99181
-1.99632
-2.00121
-2.00646
-2.01202
-2.01787
-2.0239
-2.03008
-2.03627
-2.04238
-2.0483
-2.05398
-2.05898
-1.9581
-1.95843
-1.95874
-1.95906
-1.95939
-1.95973
-1.9601
-1.96049
-1.96091
-1.96137
-1.96189
-1.96246
-1.96311
-1.96383
-1.96463
-1.96555
-1.9666
-1.96778
-1.96914
-1.97068
-1.97243
-1.97441
-1.97665
-1.97917
-1.98199
-1.98514
-1.98862
-1.99247
-1.99666
-2.0012
-2.00607
-2.01123
-2.01666
-2.02226
-2.028
-2.03376
-2.03946
-2.04496
-2.05024
-2.05488
-1.96017
-1.9605
-1.96082
-1.96114
-1.96148
-1.96183
-1.96221
-1.9626
-1.96303
-1.9635
-1.96402
-1.9646
-1.96524
-1.96595
-1.96674
-1.96764
-1.96866
-1.96981
-1.97111
-1.97258
-1.97425
-1.97612
-1.97824
-1.98061
-1.98325
-1.9862
-1.98945
-1.99303
-1.99693
-2.00115
-2.00567
-2.01046
-2.0155
-2.0207
-2.02603
-2.03138
-2.03667
-2.04178
-2.04668
-2.05096
-1.96211
-1.96244
-1.96276
-1.96308
-1.96342
-1.96378
-1.96416
-1.96456
-1.96499
-1.96546
-1.96598
-1.96655
-1.96719
-1.96789
-1.96867
-1.96954
-1.97053
-1.97164
-1.9729
-1.9743
-1.97589
-1.97767
-1.97967
-1.9819
-1.98438
-1.98714
-1.99018
-1.99351
-1.99714
-2.00106
-2.00526
-2.00971
-2.01438
-2.01921
-2.02415
-2.02911
-2.03402
-2.03876
-2.04329
-2.04724
-1.96392
-1.96425
-1.96457
-1.96489
-1.96523
-1.96559
-1.96596
-1.96637
-1.9668
-1.96727
-1.96778
-1.96835
-1.96898
-1.96967
-1.97043
-1.97128
-1.97224
-1.97331
-1.97452
-1.97586
-1.97737
-1.97906
-1.98095
-1.98305
-1.98539
-1.98797
-1.99081
-1.99392
-1.99729
-2.00094
-2.00484
-2.00896
-2.0133
-2.01777
-2.02236
-2.02696
-2.0315
-2.03589
-2.04007
-2.0437
-1.96561
-1.96594
-1.96625
-1.96657
-1.96691
-1.96726
-1.96764
-1.96804
-1.96847
-1.96894
-1.96945
-1.97001
-1.97062
-1.9713
-1.97204
-1.97287
-1.9738
-1.97483
-1.97599
-1.97727
-1.97871
-1.98032
-1.9821
-1.98408
-1.98628
-1.9887
-1.99135
-1.99425
-1.9974
-2.00078
-2.00441
-2.00824
-2.01225
-2.0164
-2.02065
-2.0249
-2.02911
-2.03316
-2.03701
-2.04033
-1.9672
-1.96752
-1.96783
-1.96814
-1.96847
-1.96882
-1.9692
-1.96959
-1.97002
-1.97048
-1.97098
-1.97153
-1.97213
-1.97279
-1.97351
-1.97432
-1.97522
-1.97621
-1.97732
-1.97855
-1.97992
-1.98144
-1.98313
-1.985
-1.98706
-1.98933
-1.99181
-1.99452
-1.99745
-2.0006
-2.00397
-2.00752
-2.01124
-2.01508
-2.01901
-2.02295
-2.02683
-2.03057
-2.03411
-2.03714
-1.96869
-1.969
-1.9693
-1.96961
-1.96993
-1.97028
-1.97064
-1.97103
-1.97145
-1.9719
-1.97239
-1.97293
-1.97352
-1.97416
-1.97486
-1.97564
-1.97651
-1.97747
-1.97853
-1.9797
-1.98101
-1.98245
-1.98405
-1.98581
-1.98775
-1.98988
-1.9922
-1.99473
-1.99746
-2.00039
-2.00352
-2.00681
-2.01026
-2.01382
-2.01745
-2.02109
-2.02467
-2.02811
-2.03136
-2.03412
-1.97008
-1.97038
-1.97067
-1.97097
-1.97129
-1.97163
-1.97198
-1.97236
-1.97277
-1.97322
-1.97369
-1.97422
-1.97479
-1.97542
-1.9761
-1.97686
-1.97769
-1.97861
-1.97963
-1.98075
-1.98199
-1.98336
-1.98487
-1.98653
-1.98836
-1.99036
-1.99253
-1.99489
-1.99743
-2.00016
-2.00306
-2.00612
-2.00931
-2.0126
-2.01596
-2.01931
-2.02262
-2.02578
-2.02875
-2.03126
-1.97139
-1.97168
-1.97196
-1.97225
-1.97256
-1.97289
-1.97323
-1.97361
-1.974
-1.97443
-1.9749
-1.97541
-1.97597
-1.97657
-1.97723
-1.97796
-1.97877
-1.97965
-1.98062
-1.98169
-1.98287
-1.98417
-1.9856
-1.98717
-1.98889
-1.99076
-1.99279
-1.995
-1.99737
-1.99991
-2.0026
-2.00544
-2.0084
-2.01144
-2.01454
-2.01763
-2.02067
-2.02357
-2.02629
-2.02857
-1.97262
-1.97289
-1.97316
-1.97345
-1.97374
-1.97406
-1.9744
-1.97476
-1.97515
-1.97557
-1.97602
-1.97651
-1.97705
-1.97764
-1.97828
-1.97898
-1.97975
-1.9806
-1.98153
-1.98255
-1.98367
-1.9849
-1.98625
-1.98773
-1.98935
-1.99111
-1.99301
-1.99507
-1.99728
-1.99964
-2.00214
-2.00477
-2.00751
-2.01032
-2.01318
-2.01603
-2.01882
-2.02148
-2.02396
-2.02602
-1.97377
-1.97403
-1.97429
-1.97456
-1.97485
-1.97516
-1.97548
-1.97583
-1.97621
-1.97662
-1.97705
-1.97753
-1.97805
-1.97862
-1.97923
-1.97991
-1.98065
-1.98146
-1.98235
-1.98332
-1.98439
-1.98556
-1.98683
-1.98823
-1.98975
-1.9914
-1.99318
-1.9951
-1.99716
-1.99936
-2.00168
-2.00412
-2.00665
-2.00925
-2.01189
-2.01451
-2.01707
-2.0195
-2.02176
-2.02363
-1.97485
-1.9751
-1.97535
-1.97561
-1.97589
-1.97618
-1.9765
-1.97684
-1.9772
-1.97759
-1.97802
-1.97848
-1.97898
-1.97952
-1.98012
-1.98077
-1.98147
-1.98225
-1.9831
-1.98402
-1.98504
-1.98614
-1.98735
-1.98866
-1.99009
-1.99164
-1.99331
-1.99511
-1.99702
-1.99907
-2.00122
-2.00348
-2.00583
-2.00822
-2.01065
-2.01306
-2.01541
-2.01764
-2.01969
-2.02138
-1.97586
-1.9761
-1.97634
-1.97659
-1.97686
-1.97714
-1.97744
-1.97777
-1.97812
-1.9785
-1.97891
-1.97936
-1.97984
-1.98036
-1.98093
-1.98155
-1.98223
-1.98297
-1.98378
-1.98466
-1.98562
-1.98667
-1.98781
-1.98905
-1.99039
-1.99184
-1.9934
-1.99508
-1.99687
-1.99877
-2.00077
-2.00286
-2.00503
-2.00724
-2.00948
-2.0117
-2.01385
-2.01588
-2.01775
-2.01926
-1.97681
-1.97704
-1.97727
-1.97751
-1.97776
-1.97804
-1.97833
-1.97864
-1.97898
-1.97934
-1.97974
-1.98017
-1.98063
-1.98113
-1.98168
-1.98228
-1.98292
-1.98363
-1.9844
-1.98524
-1.98615
-1.98714
-1.98822
-1.98938
-1.99064
-1.99201
-1.99347
-1.99503
-1.9967
-1.99847
-2.00033
-2.00226
-2.00426
-2.00631
-2.00837
-2.0104
-2.01237
-2.01422
-2.01592
-2.01728
-1.97771
-1.97792
-1.97814
-1.97837
-1.97861
-1.97888
-1.97916
-1.97946
-1.97978
-1.98013
-1.98051
-1.98092
-1.98137
-1.98185
-1.98237
-1.98294
-1.98356
-1.98423
-1.98497
-1.98576
-1.98662
-1.98756
-1.98858
-1.98968
-1.99086
-1.99214
-1.9935
-1.99497
-1.99652
-1.99816
-1.99989
-2.00168
-2.00353
-2.00541
-2.00731
-2.00917
-2.01098
-2.01267
-2.0142
-2.01542
-1.97854
-1.97875
-1.97896
-1.97918
-1.97941
-1.97966
-1.97993
-1.98022
-1.98053
-1.98087
-1.98123
-1.98162
-1.98205
-1.98251
-1.98301
-1.98356
-1.98414
-1.98479
-1.98548
-1.98623
-1.98705
-1.98794
-1.9889
-1.98993
-1.99104
-1.99224
-1.99352
-1.99488
-1.99633
-1.99786
-1.99946
-2.00112
-2.00283
-2.00456
-2.0063
-2.00802
-2.00966
-2.0112
-2.01259
-2.01368
-1.97933
-1.97952
-1.97972
-1.97993
-1.98015
-1.98039
-1.98065
-1.98093
-1.98123
-1.98155
-1.9819
-1.98228
-1.98268
-1.98312
-1.9836
-1.98412
-1.98468
-1.98529
-1.98595
-1.98667
-1.98744
-1.98828
-1.98918
-1.99015
-1.9912
-1.99232
-1.99351
-1.99479
-1.99614
-1.99755
-1.99904
-2.00057
-2.00215
-2.00375
-2.00535
-2.00692
-2.00843
-2.00983
-2.01108
-2.01205
-1.98006
-1.98025
-1.98044
-1.98064
-1.98085
-1.98108
-1.98133
-1.98159
-1.98188
-1.98219
-1.98252
-1.98288
-1.98327
-1.98369
-1.98415
-1.98464
-1.98518
-1.98575
-1.98638
-1.98706
-1.98779
-1.98858
-1.98943
-1.99034
-1.99133
-1.99238
-1.99349
-1.99468
-1.99594
-1.99725
-1.99863
-2.00005
-2.00151
-2.00298
-2.00445
-2.00589
-2.00726
-2.00853
-2.00967
-2.01054
-1.98075
-1.98093
-1.98111
-1.9813
-1.9815
-1.98172
-1.98196
-1.98221
-1.98248
-1.98278
-1.9831
-1.98344
-1.98381
-1.98422
-1.98465
-1.98512
-1.98563
-1.98618
-1.98677
-1.98741
-1.98811
-1.98885
-1.98965
-1.99051
-1.99143
-1.99241
-1.99346
-1.99457
-1.99574
-1.99696
-1.99824
-1.99955
-2.0009
-2.00225
-2.0036
-2.00492
-2.00617
-2.00733
-2.00835
-2.00912
-1.9814
-1.98156
-1.98174
-1.98192
-1.98211
-1.98232
-1.98255
-1.98279
-1.98305
-1.98333
-1.98364
-1.98397
-1.98432
-1.9847
-1.98512
-1.98556
-1.98605
-1.98657
-1.98713
-1.98774
-1.98839
-1.98909
-1.98985
-1.99065
-1.99152
-1.99244
-1.99341
-1.99445
-1.99553
-1.99667
-1.99785
-1.99907
-2.00031
-2.00156
-2.0028
-2.00401
-2.00515
-2.0062
-2.00711
-2.0078
-1.982
-1.98216
-1.98232
-1.9825
-1.98268
-1.98288
-1.9831
-1.98333
-1.98358
-1.98385
-1.98414
-1.98445
-1.98479
-1.98515
-1.98555
-1.98597
-1.98643
-1.98692
-1.98746
-1.98803
-1.98865
-1.98931
-1.99002
-1.99078
-1.99158
-1.99245
-1.99336
-1.99432
-1.99533
-1.99639
-1.99749
-1.99861
-1.99976
-2.00091
-2.00205
-2.00315
-2.00419
-2.00514
-2.00596
-2.00658
-1.98256
-1.98271
-1.98287
-1.98304
-1.98322
-1.98341
-1.98361
-1.98383
-1.98407
-1.98433
-1.9846
-1.9849
-1.98522
-1.98557
-1.98594
-1.98635
-1.98678
-1.98725
-1.98775
-1.98829
-1.98888
-1.9895
-1.99017
-1.99088
-1.99164
-1.99245
-1.9933
-1.9942
-1.99514
-1.99612
-1.99713
-1.99817
-1.99923
-2.00029
-2.00133
-2.00234
-2.00329
-2.00415
-2.00489
-2.00544
-1.98309
-1.98323
-1.98338
-1.98354
-1.98371
-1.98389
-1.98409
-1.9843
-1.98453
-1.98477
-1.98504
-1.98532
-1.98563
-1.98596
-1.98631
-1.98669
-1.9871
-1.98755
-1.98802
-1.98854
-1.98909
-1.98967
-1.9903
-1.99097
-1.99168
-1.99243
-1.99323
-1.99407
-1.99494
-1.99586
-1.9968
-1.99776
-1.99873
-1.99971
-2.00067
-2.00159
-2.00245
-2.00323
-2.0039
-2.00438
-1.98358
-1.98372
-1.98386
-1.98401
-1.98418
-1.98435
-1.98454
-1.98474
-1.98495
-1.98519
-1.98544
-1.98571
-1.986
-1.98631
-1.98665
-1.98701
-1.9874
-1.98782
-1.98827
-1.98875
-1.98927
-1.98982
-1.99041
-1.99104
-1.99171
-1.99242
-1.99316
-1.99394
-1.99476
-1.9956
-1.99647
-1.99736
-1.99826
-1.99916
-2.00004
-2.00088
-2.00167
-2.00238
-2.00297
-2.0034
-1.98404
-1.98417
-1.98431
-1.98445
-1.98461
-1.98477
-1.98495
-1.98514
-1.98535
-1.98557
-1.98581
-1.98607
-1.98634
-1.98664
-1.98696
-1.98731
-1.98768
-1.98807
-1.9885
-1.98895
-1.98944
-1.98996
-1.99052
-1.9911
-1.99173
-1.99239
-1.99308
-1.99381
-1.99457
-1.99536
-1.99617
-1.99699
-1.99782
-1.99865
-1.99945
-2.00023
-2.00094
-2.00158
-2.00212
-2.00249
-1.98447
-1.9846
-1.98473
-1.98486
-1.98501
-1.98517
-1.98534
-1.98552
-1.98572
-1.98593
-1.98616
-1.9864
-1.98666
-1.98695
-1.98725
-1.98758
-1.98793
-1.9883
-1.9887
-1.98913
-1.98959
-1.99008
-1.9906
-1.99116
-1.99174
-1.99236
-1.99301
-1.99369
-1.99439
-1.99513
-1.99588
-1.99664
-1.9974
-1.99816
-1.99891
-1.99961
-2.00026
-2.00084
-2.00132
-2.00165
-1.98487
-1.98499
-1.98512
-1.98525
-1.98539
-1.98554
-1.9857
-1.98587
-1.98606
-1.98626
-1.98648
-1.98671
-1.98696
-1.98723
-1.98752
-1.98783
-1.98816
-1.98851
-1.98889
-1.9893
-1.98973
-1.99019
-1.99068
-1.9912
-1.99175
-1.99233
-1.99293
-1.99357
-1.99422
-1.9949
-1.9956
-1.9963
-1.99701
-1.99771
-1.99839
-1.99904
-1.99964
-2.00016
-2.00059
-2.00088
-1.98525
-1.98536
-1.98548
-1.9856
-1.98574
-1.98588
-1.98604
-1.9862
-1.98638
-1.98657
-1.98678
-1.987
-1.98723
-1.98749
-1.98776
-1.98806
-1.98837
-1.9887
-1.98906
-1.98945
-1.98985
-1.99029
-1.99075
-1.99124
-1.99175
-1.99229
-1.99286
-1.99345
-1.99406
-1.99469
-1.99534
-1.99599
-1.99665
-1.99729
-1.99792
-1.99851
-1.99905
-1.99953
-1.99991
-2.00016
-1.9856
-1.9857
-1.98582
-1.98594
-1.98606
-1.9862
-1.98635
-1.98651
-1.98668
-1.98686
-1.98705
-1.98726
-1.98749
-1.98773
-1.98799
-1.98827
-1.98856
-1.98888
-1.98922
-1.98958
-1.98997
-1.99037
-1.99081
-1.99126
-1.99175
-1.99225
-1.99278
-1.99333
-1.99391
-1.99449
-1.99509
-1.9957
-1.9963
-1.9969
-1.99748
-1.99802
-1.99851
-1.99895
-1.99929
-1.99951
-1.98592
-1.98602
-1.98613
-1.98625
-1.98637
-1.9865
-1.98664
-1.98679
-1.98695
-1.98712
-1.98731
-1.98751
-1.98772
-1.98795
-1.9882
-1.98846
-1.98874
-1.98904
-1.98936
-1.9897
-1.99007
-1.99045
-1.99086
-1.99129
-1.99174
-1.99221
-1.99271
-1.99323
-1.99376
-1.9943
-1.99486
-1.99542
-1.99598
-1.99653
-1.99707
-1.99756
-1.99802
-1.99841
-1.99872
-1.99891
-1.98622
-1.98632
-1.98642
-1.98653
-1.98665
-1.98677
-1.98691
-1.98705
-1.9872
-1.98737
-1.98755
-1.98774
-1.98794
-1.98816
-1.98839
-1.98864
-1.98891
-1.98919
-1.98949
-1.98981
-1.99016
-1.99052
-1.9909
-1.99131
-1.99173
-1.99218
-1.99264
-1.99312
-1.99362
-1.99413
-1.99465
-1.99517
-1.99569
-1.9962
-1.99669
-1.99714
-1.99756
-1.99792
-1.9982
-1.99837
-1.98651
-1.9866
-1.9867
-1.9868
-1.98691
-1.98703
-1.98716
-1.98729
-1.98744
-1.9876
-1.98777
-1.98795
-1.98814
-1.98835
-1.98857
-1.9888
-1.98906
-1.98932
-1.98961
-1.98991
-1.99024
-1.99058
-1.99094
-1.99132
-1.99172
-1.99214
-1.99257
-1.99302
-1.99349
-1.99396
-1.99444
-1.99493
-1.99541
-1.99588
-1.99634
-1.99676
-1.99714
-1.99747
-1.99772
-1.99788
-1.98677
-1.98686
-1.98695
-1.98705
-1.98715
-1.98727
-1.98739
-1.98752
-1.98766
-1.98781
-1.98797
-1.98814
-1.98832
-1.98852
-1.98873
-1.98896
-1.98919
-1.98945
-1.98972
-1.99001
-1.99031
-1.99063
-1.99097
-1.99133
-1.99171
-1.9921
-1.99251
-1.99293
-1.99336
-1.99381
-1.99426
-1.99471
-1.99516
-1.99559
-1.99601
-1.9964
-1.99676
-1.99706
-1.99729
-1.99743
-1.98701
-1.98709
-1.98718
-1.98728
-1.98738
-1.98749
-1.9876
-1.98773
-1.98786
-1.988
-1.98816
-1.98832
-1.9885
-1.98868
-1.98888
-1.98909
-1.98932
-1.98956
-1.98982
-1.99009
-1.99038
-1.99068
-1.991
-1.99134
-1.99169
-1.99206
-1.99244
-1.99284
-1.99325
-1.99366
-1.99408
-1.9945
-1.99492
-1.99533
-1.99572
-1.99608
-1.9964
-1.99668
-1.99689
-1.99702
-1.98723
-1.98731
-1.9874
-1.98749
-1.98759
-1.98769
-1.9878
-1.98792
-1.98805
-1.98818
-1.98833
-1.98849
-1.98865
-1.98883
-1.98902
-1.98922
-1.98944
-1.98967
-1.98991
-1.99017
-1.99044
-1.99073
-1.99103
-1.99135
-1.99168
-1.99203
-1.99239
-1.99276
-1.99314
-1.99353
-1.99392
-1.99431
-1.9947
-1.99508
-1.99544
-1.99578
-1.99608
-1.99634
-1.99654
-1.99666
-1.98744
-1.98752
-1.9876
-1.98769
-1.98778
-1.98788
-1.98799
-1.9881
-1.98822
-1.98835
-1.98849
-1.98864
-1.9888
-1.98897
-1.98915
-1.98934
-1.98954
-1.98976
-1.98999
-1.99024
-1.99049
-1.99077
-1.99105
-1.99135
-1.99166
-1.99199
-1.99233
-1.99268
-1.99304
-1.9934
-1.99377
-1.99414
-1.9945
-1.99486
-1.9952
-1.99551