/*--------------------------------*- C++ -*----------------------------------*\
| =========                 |                                                 |
| \\      /  F ield         | OpenFOAM: The Open Source CFD Toolbox           |
|  \\    /   O peration     | Version:  5.x                                   |
|   \\  /    A nd           | Web:      www.OpenFOAM.org                      |
|    \\/     M anipulation  |                                                 |
\*---------------------------------------------------------------------------*/
FoamFile
{
    version     2.0;
    format      ascii;
    class       surfaceScalarField;
    location    "200";
    object      phi;
}
// * * * * * * * * * * * * * * * * * * * * * * * * * * * * * * * * * * * * * //

dimensions      [0 3 -1 0 0 0 0];

internalField   nonuniform List<scalar> 
51690
(
1.85953e-05
-0.000207941
0.000189412
0.000165427
-0.000146834
0.000258028
-9.26068e-05
0.000314256
-5.62304e-05
0.000346469
-3.22162e-05
0.000363815
-1.73456e-05
0.000374885
-1.10691e-05
0.000379924
-5.03787e-06
0.000384356
-4.42871e-06
0.000387699
-3.34015e-06
0.000391603
-3.90191e-06
0.000397236
-5.63096e-06
0.000397211
2.62418e-08
0.000403621
-6.40928e-06
0.000410783
-7.16012e-06
0.000417081
-6.2976e-06
0.000424243
-7.16046e-06
0.00043209
-7.8456e-06
0.000440809
-8.71853e-06
0.000450039
-9.2288e-06
0.000459996
-9.95626e-06
0.000470409
-1.0412e-05
0.000481276
-1.0867e-05
0.000492502
-1.12252e-05
0.000503935
-1.14323e-05
0.000515645
-1.17099e-05
0.000527341
-1.16957e-05
0.000539017
-1.16755e-05
0.000550439
-1.1422e-05
0.000561589
-1.11494e-05
0.000572207
-1.06185e-05
0.000582138
-9.93028e-06
0.000591183
-9.04436e-06
0.0005991
-7.917e-06
0.000605759
-6.65887e-06
0.000610765
-5.00575e-06
0.000614097
-3.33206e-06
0.00061469
-5.93229e-07
0.000610298
4.39226e-06
3.67181e-06
0.000606626
-1.67907e-05
-0.000279589
8.84383e-05
6.37469e-05
-0.000227373
0.000138952
-0.000167813
0.000202667
-0.000119948
0.00025168
-8.12291e-05
0.000288168
-5.38351e-05
0.0003152
-3.81013e-05
0.000335166
-2.5003e-05
0.000350603
-1.98646e-05
0.000363222
-1.59564e-05
0.000374136
-1.48139e-05
0.000385027
-1.6521e-05
0.000394021
-8.96721e-06
0.000404066
-1.6453e-05
0.000414378
-1.74711e-05
0.000425083
-1.70016e-05
0.000435868
-1.79443e-05
0.000447348
-1.93249e-05
0.000459346
-2.07157e-05
0.000471579
-2.14613e-05
0.000484555
-2.29317e-05
0.00049772
-2.35774e-05
0.000511319
-2.44655e-05
0.000525224
-2.513e-05
0.000539229
-2.54372e-05
0.000553528
-2.60094e-05
0.00056768
-2.58476e-05
0.000581784
-2.57792e-05
0.000595571
-2.52094e-05
0.000608977
-2.45552e-05
0.00062184
-2.34819e-05
0.000633908
-2.19983e-05
0.000645078
-2.02146e-05
0.000655005
-1.78454e-05
0.000663593
-1.52466e-05
0.000670438
-1.18514e-05
0.000675326
-8.22019e-06
0.000678367
-3.63453e-06
0.000678327
4.43207e-06
4.42712e-06
0.000677571
-2.30956e-05
-0.000324047
6.75543e-05
2.99879e-05
-0.000280456
8.94087e-05
-0.000227234
0.000150183
-0.000180723
0.000205275
-0.000136322
0.000252323
-0.000100884
0.000290792
-7.6571e-05
0.00032113
-5.53412e-05
0.000345152
-4.38852e-05
0.000364324
-3.51277e-05
0.000380345
-3.08334e-05
0.000394363
-3.05384e-05
0.000407095
-2.16984e-05
0.000418931
-2.82882e-05
0.000431057
-2.95969e-05
0.000443474
-2.94181e-05
0.000455799
-3.02685e-05
0.000468437
-3.19622e-05
0.000481459
-3.37365e-05
0.000494795
-3.47971e-05
0.000508709
-3.68449e-05
0.000522875
-3.77436e-05
0.000537436
-3.90256e-05
0.000552289
-3.99821e-05
0.000567278
-4.04266e-05
0.000582509
-4.12396e-05
0.000597646
-4.09846e-05
0.000612719
-4.08518e-05
0.000627493
-3.99833e-05
0.000641863
-3.8925e-05
0.000655682
-3.73005e-05
0.000668696
-3.50124e-05
0.00068078
-3.22984e-05
0.00069161
-2.86745e-05
0.000701044
-2.46805e-05
0.000708716
-1.9524e-05
0.000714393
-1.38961e-05
0.000717736
-6.97822e-06
0.000717878
4.2902e-06
5.82663e-06
0.000716479
-2.20469e-05
-0.000356739
5.47391e-05
1.59074e-05
-0.00031841
6.06812e-05
-0.000272008
0.00011114
-0.000231183
0.000162419
-0.000187601
0.000211386
-0.000149852
0.000255695
-0.00012088
0.000293619
-9.32657e-05
0.000325513
-7.57794e-05
0.000351657
-6.12709e-05
0.000373572
-5.27482e-05
0.000392133
-4.90986e-05
0.000409105
-3.86702e-05
0.000424307
-4.34893e-05
0.000438882
-4.4171e-05
0.000453289
-4.38247e-05
0.000467519
-4.44975e-05
0.000481792
-4.62353e-05
0.000496261
-4.8205e-05
0.000510933
-4.94685e-05
0.000526046
-5.19569e-05
0.000541376
-5.30742e-05
0.000557027
-5.46761e-05
0.000572935
-5.589e-05
0.000588964
-5.64552e-05
0.000605194
-5.74705e-05
0.000621341
-5.71314e-05
0.0006374
-5.69105e-05
0.000653159
-5.57425e-05
0.000668488
-5.42545e-05
0.000683243
-5.20555e-05
0.000697166
-4.8936e-05
0.000710118
-4.52513e-05
0.000721778
-4.0334e-05
0.000731979
-3.48823e-05
0.000740367
-2.79116e-05
0.000746691
-2.02204e-05
0.000750589
-1.0877e-05
0.000751306
3.57325e-06
7.27418e-06
0.000749858
-1.91298e-05
-0.000383824
4.6215e-05
1.09297e-05
-0.00034847
4.60865e-05
-0.000307165
8.71285e-05
-0.000272225
0.00013176
-0.000232233
0.000177928
-0.00019602
0.000223319
-0.000166272
0.000265246
-0.000135193
0.000302908
-0.000113442
0.000335215
-9.35775e-05
0.000363035
-8.05682e-05
0.0003865
-7.25633e-05
0.000408011
-6.01806e-05
0.000427164
-6.26419e-05
0.000444891
-6.18978e-05
0.00046168
-6.06139e-05
0.000478068
-6.08846e-05
0.000494192
-6.23588e-05
0.000510271
-6.4284e-05
0.000526402
-6.55994e-05
0.000542786
-6.83405e-05
0.000559324
-6.96118e-05
0.000576095
-7.14464e-05
0.000593063
-7.28582e-05
0.00061012
-7.35123e-05
0.000627321
-7.46708e-05
0.000644425
-7.42354e-05
0.000661409
-7.38946e-05
0.000678081
-7.24141e-05
0.0006943
-7.04729e-05
0.00070992
-6.76754e-05
0.00072469
-6.3706e-05
0.000738451
-5.90128e-05
0.000750884
-5.27666e-05
0.000761795
-4.57929e-05
0.000770831
-3.69477e-05
0.000777723
-2.71125e-05
0.000782107
-1.52602e-05
0.000783335
2.34498e-06
8.64243e-06
0.000781967
-1.62501e-05
-0.000407788
4.02144e-05
9.47606e-06
-0.000374196
3.87713e-05
-0.00033646
7.29305e-05
-0.000306384
0.000111209
-0.000270512
0.00015277
-0.000237582
0.000196162
-0.000209664
0.000238853
-0.000177885
0.000279608
-0.000154197
0.0003164
-0.00013037
0.000349329
-0.000113497
0.000377595
-0.000100829
0.000403782
-8.6368e-05
0.00042724
-8.60995e-05
0.000448662
-8.33194e-05
0.0004683
-8.02512e-05
0.000487206
-7.979e-05
0.00050548
-8.06328e-05
0.000523438
-8.22409e-05
0.00054126
-8.3422e-05
0.000559107
-8.61863e-05
0.000577013
-8.75176e-05
0.000595038
-8.9472e-05
0.00061318
-9.10001e-05
0.000631362
-9.16937e-05
0.000649613
-9.29218e-05
0.000667743
-9.23658e-05
0.000685709
-9.18611e-05
0.000703333
-9.00381e-05
0.000720467
-8.76069e-05
0.000736962
-8.41712e-05
0.000752577
-7.93209e-05
0.000767139
-7.35746e-05
0.000780335
-6.59628e-05
0.000791946
-5.74048e-05
0.000801621
-4.66222e-05
0.000809065
-3.4557e-05
0.00081391
-2.01055e-05
0.000815588
6.6693e-07
9.88848e-06
0.000814341
-1.36157e-05
-0.000429913
3.57407e-05
9.64503e-06
-0.000397457
3.54267e-05
-0.000362241
6.49671e-05
-0.000335924
9.8229e-05
-0.000303773
0.000135171
-0.000274524
0.000175216
-0.000249709
0.000216508
-0.000219176
0.000257962
-0.000195652
0.000297248
-0.000169655
0.000333906
-0.000150156
0.000366303
-0.000133226
0.00039689
-0.000116955
0.000424712
-0.000113921
0.000450159
-0.000108767
0.000473063
-0.000103155
0.000494886
-0.000101613
0.000515661
-0.000101407
0.000535809
-0.000102389
0.000555602
-0.000103215
0.000575142
-0.000105726
0.000594616
-0.000106991
0.000614067
-0.000108923
0.000633528
-0.000110462
0.000652961
-0.000111126
0.000672374
-0.000112335
0.000691629
-0.000111621
0.000710664
-0.000110896
0.000729318
-0.000108692
0.000747438
-0.000105727
0.000764867
-0.0001016
0.00078137
-9.58239e-05
0.000796762
-8.89663e-05
0.000810738
-7.99388e-05
0.000823061
-6.97277e-05
0.000833379
-5.69398e-05
0.000841377
-4.25548e-05
0.000846678
-2.5406e-05
0.000848764
-1.4192e-06
1.09977e-05
0.000847655
-1.12425e-05
-0.000450955
3.2284e-05
1.06054e-05
-0.000419304
3.43073e-05
-0.000385943
6.08914e-05
-0.000362508
9.05688e-05
-0.000333451
0.000123675
-0.00030763
0.000160228
-0.000286262
0.000199087
-0.000258036
0.000239592
-0.000236156
0.000279598
-0.000209662
0.000318422
-0.00018898
0.000353894
-0.000168699
0.000388191
-0.000151252
0.00042007
-0.000145801
0.00044957
-0.000138266
0.000475983
-0.000129567
0.000501038
-0.000126668
0.000524636
-0.000125005
0.000547286
-0.000125038
0.000569344
-0.000125273
0.000590842
-0.000127224
0.000612119
-0.000128268
0.0006332
-0.000130003
0.000654159
-0.000131421
0.000675
-0.000131968
0.00069571
-0.000133045
0.000716207
-0.000132118
0.000736415
-0.000131104
0.000756193
-0.00012847
0.000775384
-0.000124919
0.000793826
-0.000120042
0.000811287
-0.000113285
0.000827566
-0.000105246
0.000842367
-9.47397e-05
0.000855434
-8.27947e-05
0.000866417
-6.7923e-05
0.000874984
-5.11216e-05
0.000880747
-3.11688e-05
0.000883221
-3.8938e-06
1.19611e-05
0.000882257
-9.10066e-06
-0.000471396
2.95419e-05
1.19737e-05
-0.000440379
3.44856e-05
-0.000408455
5.92547e-05
-0.000387277
8.65387e-05
-0.000360734
0.000116791
-0.000337882
0.000150333
-0.000319804
0.000186574
-0.000294277
0.000225286
-0.000274868
0.00026476
-0.000249136
0.000304361
-0.000228582
0.000341744
-0.000206081
0.000378793
-0.000188301
0.000414093
-0.000181101
0.000447346
-0.000171519
0.000477273
-0.000159494
0.000505724
-0.000155119
0.00053239
-0.000151672
0.000557817
-0.000150464
0.000582419
-0.000149875
0.000606137
-0.000150941
0.000629462
-0.000151594
0.000652392
-0.000152933
0.000675047
-0.000154075
0.000697476
-0.000154396
0.000719641
-0.00015521
0.000741522
-0.000153998
0.000763025
-0.000152608
0.000784034
-0.000149479
0.000804394
-0.000145279
0.000823936
-0.000139584
0.000842436
-0.000131785
0.000859675
-0.000122485
0.000875362
-0.000110426
0.000889223
-9.66547e-05
0.000900908
-7.96081e-05
0.000910069
-6.02826e-05
0.00091631
-3.74092e-05
0.000919167
-6.75073e-06
1.27716e-05
0.000918357
-7.14856e-06
-0.000491566
2.73195e-05
1.35676e-05
-0.000461095
3.54613e-05
-0.000430349
5.9184e-05
-0.000411
8.49689e-05
-0.000386519
0.000113261
-0.000366174
0.000144494
-0.000351037
0.00017842
-0.000328203
0.000215131
-0.000311579
0.000253399
-0.000287404
0.00029278
-0.000267963
0.000331043
-0.000244345
0.000369837
-0.000227094
0.000407729
-0.000218994
0.000444173
-0.000207963
0.000477381
-0.000192701
0.00050919
-0.000186928
0.000539035
-0.000181517
0.000567426
-0.000178856
0.000594803
-0.000177252
0.000620984
-0.000177122
0.000646598
-0.000177208
0.000671604
-0.000177939
0.000696162
-0.000178633
0.000720367
-0.000178602
0.000744158
-0.000179001
0.000767577
-0.000177418
0.000790516
-0.000175546
0.000812881
-0.000171844
0.00083452
-0.000166918
0.000855261
-0.000160325
0.000874888
-0.000151413
0.000893168
-0.000140764
0.000909812
-0.000127071
0.000924526
-0.000111369
0.000936963
-9.20444e-05
0.000946755
-7.0075e-05
0.000953499
-4.41531e-05
0.000956745
-9.99742e-06
1.34189e-05
0.000956098
-5.34585e-06
-0.000511706
2.54855e-05
1.52999e-05
-0.00048174
3.69607e-05
-0.000452009
6.01607e-05
-0.000434199
8.50921e-05
-0.000411451
0.000112147
-0.000393229
0.000141765
-0.000380654
0.000173885
-0.000360323
0.000208786
-0.000346479
0.000245645
-0.000324263
0.000284245
-0.000306563
0.000322641
-0.000282742
0.000362307
-0.00026676
0.000401939
-0.000258626
0.000440866
-0.00024689
0.000476928
-0.000228763
0.000511861
-0.000221861
0.000544835
-0.000214491
0.000576266
-0.000210286
0.000606567
-0.000207553
0.000635404
-0.000205959
0.000663519
-0.000205323
0.000690816
-0.000205236
0.000717483
-0.0002053
0.000743661
-0.00020478
0.000769256
-0.000204596
0.000794378
-0.00020254
0.000818901
-0.000200069
0.000842757
-0.0001957
0.000865798
-0.00018996
0.000887847
-0.000182375
0.000908701
-0.000172266
0.000928107
-0.000160171
0.000945787
-0.00014475
0.000961424
-0.000127005
0.000974668
-0.000105289
0.000985136
-8.05432e-05
0.000992416
-5.14326e-05
0.000996067
-1.36486e-05
1.38913e-05
0.000995595
-3.65785e-06
-0.000531996
2.39483e-05
1.71285e-05
-0.000502527
3.88297e-05
-0.00047371
6.18743e-05
-0.000457244
8.64167e-05
-0.000435993
0.000112788
-0.0004196
0.000141388
-0.000409254
0.000172244
-0.00039118
0.000205716
-0.000379951
0.00024128
-0.000359826
0.000278909
-0.000344192
0.000317005
-0.000320838
0.000356911
-0.000306667
0.000397545
-0.000299261
0.000438234
-0.000287578
0.000476621
-0.000267151
0.000514294
-0.000259534
0.000550198
-0.000250394
0.000584611
-0.000244699
0.000617881
-0.000240823
0.0006495
-0.000237578
0.000680281
-0.000236104
0.000710054
-0.000235008
0.000739023
-0.000234269
0.000767362
-0.000233119
0.000794941
-0.000232175
0.000821936
-0.000229536
0.000848199
-0.000226332
0.00087369
-0.000221191
0.000898263
-0.000214533
0.000921739
-0.000205851
0.000943924
-0.000194451
0.000964552
-0.000180799
0.000983352
-0.000163549
0.000999984
-0.000143638
0.0010141
-0.000119405
0.0010253
-9.17392e-05
0.00103315
-5.92871e-05
0.00103723
-1.77276e-05
1.41731e-05
0.00103695
-2.05507e-06
-0.000552582
2.26412e-05
1.9035e-05
-0.000523617
4.09803e-05
-0.000495656
6.41374e-05
-0.000480401
8.86303e-05
-0.000460486
0.000114735
-0.000445705
0.000142799
-0.000437318
0.000172883
-0.000421264
0.000205363
-0.000412431
0.000239913
-0.000394377
0.000276638
-0.000380917
0.000314275
-0.000358475
0.000354055
-0.000346447
0.000395151
-0.000340357
0.000436975
-0.000329403
0.00047715
-0.000307326
0.000517103
-0.000299487
0.000555623
-0.000288914
0.000592842
-0.000281918
0.000629019
-0.000277
0.000663461
-0.00027202
0.000697007
-0.00026965
0.000729399
-0.0002674
0.000760833
-0.000265704
0.000791507
-0.000263793
0.000821243
-0.000261911
0.000850278
-0.000258571
0.00087844
-0.000254493
0.000905712
-0.000248463
0.000931953
-0.000240775
0.000956981
-0.000230878
0.000980612
-0.000218082
0.00100256
-0.000202749
0.00102257
-0.000183558
0.00104028
-0.000161346
0.00105534
-0.00013446
0.00106732
-0.000103719
0.00107579
-6.77596e-05
0.00108032
-2.2262e-05
1.42467e-05
0.00108025
-5.12453e-07
-0.000573584
2.15145e-05
2.10132e-05
-0.000545142
4.3362e-05
-0.000518004
6.68354e-05
-0.000503874
9.15344e-05
-0.000485185
0.000117689
-0.000471859
0.000145597
-0.000465225
0.000175325
-0.000450993
0.00020723
-0.000444335
0.000241111
-0.000428258
0.000277148
-0.000416954
0.000314361
-0.000395688
0.000353878
-0.000385964
0.000395113
-0.000381592
0.000437609
-0.000371899
0.000479102
-0.00034882
0.000520875
-0.00034126
0.000561643
-0.000329682
0.00060141
-0.000321684
0.000640336
-0.000315926
0.000677555
-0.000309239
0.000713894
-0.000305989
0.000748992
-0.000302498
0.000783018
-0.00029973
0.000816172
-0.000296947
0.000848222
-0.00029396
0.000879455
-0.000289805
0.00090967
-0.000284708
0.000938872
-0.000277665
0.00096692
-0.000268824
0.000993627
-0.000257585
0.00101882
-0.000243277
0.0010422
-0.00022613
0.00106352
-0.000204871
0.00108238
-0.000180212
0.00109845
-0.000150528
0.00111127
-0.000116543
0.00112041
-7.68982e-05
0.00112544
-2.72853e-05
1.4091e-05
0.00112559
9.91286e-07
-0.000595105
2.05298e-05
2.30636e-05
-0.000567215
4.59464e-05
-0.000540887
6.98981e-05
-0.000527826
9.50025e-05
-0.000510289
0.000121453
-0.00049831
0.000149503
-0.000493275
0.000179216
-0.000480706
0.000210914
-0.000476033
0.000244472
-0.000461816
0.000280101
-0.000452583
0.000317049
-0.000432636
0.000356336
-0.000425251
0.000397578
-0.000422834
0.00044046
-0.000414781
0.000482919
-0.000391279
0.000526112
-0.000384453
0.000568763
-0.000372334
0.000610777
-0.000363698
0.000652231
-0.00035738
0.000692112
-0.00034912
0.000731202
-0.000345078
0.000769033
-0.000340329
0.000805729
-0.000336426
0.000841475
-0.000332693
0.000875972
-0.000328456
0.000909546
-0.00032338
0.000941959
-0.00031712
0.000973234
-0.00030894
0.00100323
-0.000298817
0.00103174
-0.000286102
0.00105862
-0.000270155
0.00108354
-0.00025105
0.00110626
-0.000227588
0.00112637
-0.000200324
0.00114353
-0.000167684
0.00115726
-0.000130274
0.00116712
-8.6753e-05
0.00117266
-3.28331e-05
1.36838e-05
0.00117307
2.47448e-06
-0.000617237
1.96569e-05
2.51904e-05
-0.00058993
4.8718e-05
-0.000564415
7.32818e-05
-0.00055239
9.8953e-05
-0.00053596
0.000125896
-0.000525253
0.000154327
-0.000521705
0.000184302
-0.000510681
0.000216105
-0.000507836
0.000249657
-0.000495368
0.000285175
-0.0004881
0.000322076
-0.000469537
0.000361273
-0.000464448
0.00040254
-0.000464101
0.000445683
-0.000457924
0.000488884
-0.000434481
0.000533196
-0.000428765
0.000577413
-0.000416551
0.00062138
-0.000407665
0.00066511
-0.000401111
0.00070749
-0.0003915
0.00074923
-0.000386818
0.000789769
-0.000380868
0.000829165
-0.000375822
0.000867573
-0.000371102
0.000904622
-0.000365505
0.000940659
-0.000359417
0.000975402
-0.000351864
0.00100888
-0.000342422
0.00104095
-0.000330887
0.00107141
-0.000316555
0.00110009
-0.000298838
0.00112666
-0.000277622
0.00115089
-0.000251812
0.00117234
-0.000221774
0.00119066
-0.000186007
0.00120536
-0.000144979
0.00121599
-9.73776e-05
0.0012221
-3.89443e-05
1.30002e-05
0.00122278
3.95325e-06
-0.000640061
1.88715e-05
2.73999e-05
-0.000613377
5.16701e-05
-0.000588685
7.69609e-05
-0.000577681
0.000103334
-0.000562334
0.000130932
-0.00055285
0.000159938
-0.000550712
0.000190404
-0.000541146
0.000222576
-0.000540008
0.000256401
-0.000529193
0.000292087
-0.000523786
0.00032918
-0.00050663
0.000368487
-0.000503755
0.000409892
-0.000505506
0.0004533
-0.000501333
0.000497144
-0.000478325
0.000542385
-0.000474006
0.000587928
-0.000462094
0.000633592
-0.00045333
0.000679354
-0.000446873
0.000724046
-0.000436192
0.000768302
-0.000431074
0.000811476
-0.000424043
0.000853558
-0.000417903
0.000894661
-0.000412205
0.000934334
-0.000405178
0.00097293
-0.000398013
0.00101012
-0.000389051
0.00104593
-0.000378234
0.0010802
-0.00036516
0.00111272
-0.000349069
0.00114332
-0.000329444
0.00117166
-0.000305958
0.00119749
-0.000277644
0.00122037
-0.000244653
0.00123994
-0.000205577
0.00125569
-0.000160727
0.00126714
-0.000108827
0.00127385
-4.56588e-05
1.20152e-05
0.00127483
5.44195e-06
-0.000663657
1.81535e-05
2.96999e-05
-0.000637635
5.48016e-05
-0.000613786
8.09215e-05
-0.000603801
0.000108115
-0.000589527
0.000136504
-0.00058124
0.000166251
-0.000580459
0.000197398
-0.000572293
0.00023016
-0.00057277
0.0002645
-0.000563533
0.00030061
-0.000559896
0.00033813
-0.00054415
0.000377769
-0.000543394
0.000419485
-0.000547221
0.000463252
-0.0005451
0.000507738
-0.000522812
0.000553822
-0.00052009
0.000600538
-0.00050881
0.000647708
-0.0005005
0.000695292
-0.000494457
0.000742116
-0.000483016
0.000788735
-0.000477693
0.000834446
-0.000469753
0.000879166
-0.000462624
0.000922959
-0.000455998
0.000965298
-0.000447517
0.00100652
-0.000439237
0.00104625
-0.000428776
0.0010845
-0.000416481
0.00112108
-0.000401748
0.00115577
-0.00038376
0.00118842
-0.000362087
0.00121863
-0.000336165
0.00124617
-0.000305186
0.00127057
-0.000269054
0.00129147
-0.000226477
0.00130833
-0.000177586
0.00132066
-0.000121158
0.00132802
-5.30185e-05
1.07021e-05
0.00132933
6.95348e-06
-0.000688096
1.74862e-05
3.20992e-05
-0.000662781
5.81152e-05
-0.000639802
8.51574e-05
-0.000630843
0.000113276
-0.000617646
0.00014258
-0.000610544
0.000173209
-0.000611088
0.0002052
-0.000604284
0.000238742
-0.000606311
0.000273807
-0.000598599
0.000310569
-0.000596658
0.000348738
-0.00058232
0.000388933
-0.000583589
0.000431158
-0.000589445
0.000475433
-0.000589374
0.000520634
-0.000568013
0.000567563
-0.000567019
0.000615384
-0.000556631
0.000663939
-0.000549055
0.000713188
-0.000543707
0.00076199
-0.000531817
0.000810828
-0.000526532
0.000858965
-0.00051789
0.000906254
-0.000509913
0.000952707
-0.000502451
0.000997726
-0.000492535
0.00104162
-0.000483133
0.00108396
-0.000471111
0.00112473
-0.000457255
0.00116374
-0.000440754
0.00120071
-0.000420735
0.0012355
-0.000396876
0.00126769
-0.000368352
0.00129704
-0.000334539
0.00132305
-0.000295068
0.00134536
-0.000248788
0.00136341
-0.000195628
0.00137667
-0.000134427
0.00138472
-6.1065e-05
9.03453e-06
0.00138639
8.49953e-06
-0.000713452
1.68557e-05
3.46067e-05
-0.000688888
6.1616e-05
-0.000666812
8.96681e-05
-0.000658895
0.00011881
-0.000646787
0.000149137
-0.000640871
0.000180775
-0.000642725
0.000213755
-0.000637265
0.000248242
-0.000640798
0.000284217
-0.000634574
0.000321834
-0.000634274
0.000360856
-0.000621342
0.000401821
-0.000624554
0.000444761
-0.000632385
0.000489723
-0.000634337
0.000535761
-0.000614052
0.000583602
-0.000614859
0.000632533
-0.000605563
0.000682422
-0.000598944
0.00073324
-0.000594525
0.000783906
-0.000582482
0.000834842
-0.000577469
0.0008853
-0.000568348
0.000935081
-0.000559694
0.000984148
-0.000551518
0.00103184
-0.000540227
0.00107843
-0.000529723
0.00112343
-0.000516107
0.0011668
-0.000500627
0.00120831
-0.000482265
0.00124767
-0.000460091
0.0012847
-0.000433909
0.00131896
-0.000402617
0.00135022
-0.000365797
0.00137794
-0.000322787
0.00140175
-0.000272592
0.00142104
-0.000214922
0.0014353
-0.000148691
0.00144408
-6.98402e-05
6.9856e-06
0.00144613
1.00908e-05
-0.000739792
1.62499e-05
3.72315e-05
-0.000716028
6.53111e-05
-0.000694891
9.4457e-05
-0.000688041
0.000124714
-0.000677044
0.000156168
-0.000672325
0.000188929
-0.000675486
0.000223028
-0.000671364
0.000258608
-0.000676379
0.000295657
-0.000671623
0.000334309
-0.000672927
0.000374371
-0.000661404
0.000416309
-0.000666491
0.000460167
-0.000676243
0.000506008
-0.000680178
0.000553034
-0.000661078
0.0006019
-0.000663725
0.000652002
-0.000655665
0.000703235
-0.000650177
0.000755585
-0.000646875
0.000808048
-0.000634946
0.000860996
-0.000630417
0.00091369
-0.000621041
0.000965892
-0.000611897
0.00101752
-0.000603147
0.00106787
-0.000590573
0.00111716
-0.000579015
0.00116485
-0.0005638
0.00121088
-0.000546655
0.00125497
-0.000526354
0.00129679
-0.000501915
0.00133616
-0.000473281
0.0013726
-0.000439055
0.00140586
-0.000399055
0.00143537
-0.000352297
0.00146075
-0.000297966
0.00148136
-0.000235536
0.00149667
-0.000164006
0.00150622
-7.93846e-05
4.52966e-06
0.00150868
1.17372e-05
-0.000767188
1.56584e-05
3.99831e-05
-0.000744274
6.92087e-05
-0.000724117
9.95302e-05
-0.000718362
0.00013099
-0.000708504
0.000163668
-0.000705003
0.000197662
-0.00070948
0.000232999
-0.000706701
0.000269809
-0.000713188
0.00030808
-0.000709894
0.000347933
-0.00071278
0.000389206
-0.000702677
0.000432302
-0.000709588
0.000477274
-0.000721215
0.000524188
-0.000727092
0.000572369
-0.000709258
0.000622402
-0.000713757
0.000673777
-0.000707041
0.000726415
-0.000702814
0.000780312
-0.000700772
0.000834554
-0.000689188
0.000889467
-0.00068533
0.00094434
-0.000675914
0.000998908
-0.000666465
0.00105305
-0.000657293
0.00110603
-0.000643552
0.00115802
-0.000631005
0.00120844
-0.000614212
0.00125716
-0.000595382
0.00130389
-0.000573084
0.00134826
-0.000546282
0.00139005
-0.000515073
0.00142875
-0.000477756
0.0014641
-0.000434399
0.00149548
-0.000383683
0.0015225
-0.000324988
0.00154451
-0.000257539
0.00156093
-0.000180427
0.00157128
-8.9738e-05
1.64165e-06
0.00157417
1.3448e-05
-0.000795708
1.50723e-05
4.2871e-05
-0.000773697
7.33182e-05
-0.000754564
0.000104896
-0.00074994
0.000137647
-0.000741255
0.000171642
-0.000738998
0.000206972
-0.000744809
0.000243662
-0.000743392
0.000281826
-0.000751352
0.000321457
-0.000749526
0.000362663
-0.000753985
0.000405306
-0.00074532
0.000449736
-0.000754018
0.000496007
-0.000767486
0.000544184
-0.00077527
0.000593692
-0.000758766
0.000645052
-0.000765117
0.000697832
-0.000759821
0.000751969
-0.000756952
0.000807474
-0.000756277
0.00086352
-0.000745234
0.000920394
-0.000742204
0.000977421
-0.000732941
0.00103432
-0.000723366
0.00109095
-0.000713922
0.00114655
-0.000699146
0.00120123
-0.000685692
0.00125438
-0.000667361
0.00130584
-0.000646844
0.00135527
-0.000622507
0.00140224
-0.000593259
0.00144653
-0.000559361
0.00148757
-0.000518799
0.00152509
-0.00047191
0.00155843
-0.000417023
0.00158717
-0.000353732
0.00161063
-0.000280993
0.00162821
-0.000198008
0.0016394
-0.000100938
-1.70137e-06
0.00164275
1.52317e-05
-0.000825423
1.44835e-05
4.59045e-05
-0.00080437
7.76495e-05
-0.000786309
0.000110565
-0.000782855
0.000144692
-0.000775383
0.000180099
-0.000774404
0.000216864
-0.000781575
0.000255016
-0.000781544
0.000294654
-0.00079099
0.000335777
-0.000790648
0.000378477
-0.000796685
0.00042264
-0.000789484
0.000468569
-0.000799947
0.000516314
-0.000815231
0.000565938
-0.000824893
0.000616948
-0.000809776
0.000669802
-0.000817971
0.000724135
-0.000814154
0.000779897
-0.000812714
0.000837104
-0.000813485
0.000895016
-0.000803146
0.000953882
-0.00080107
0.00101307
-0.000792133
0.0010723
-0.000782597
0.00113141
-0.000773023
0.00118961
-0.000757349
0.00124699
-0.000743075
0.00130289
-0.000723264
0.00135712
-0.000701073
0.00140928
-0.000674668
0.00145893
-0.000642904
0.00150578
-0.000606213
0.00154924
-0.00056226
0.001589
-0.000511665
0.00162437
-0.000452395
0.00165491
-0.000384267
0.00167988
-0.000305963
0.00169867
-0.000216797
0.00171075
-0.000113019
-5.521e-06
0.00171457
1.70968e-05
-0.000856405
1.38851e-05
4.90933e-05
-0.000836367
8.22134e-05
-0.000819429
0.000116548
-0.00081719
0.000152139
-0.000810974
0.000189048
-0.000811313
0.000227349
-0.000819876
0.000267069
-0.000821264
0.000308298
-0.000832219
0.000351037
-0.000833387
0.000395368
-0.000841015
0.000441194
-0.00083531
0.000488776
-0.000847529
0.000538163
-0.000864618
0.000589411
-0.000876141
0.000642094
-0.00086246
0.000696617
-0.000872494
0.000752662
-0.000870199
0.00081019
-0.000870243
0.000869221
-0.000872516
0.00092909
-0.000863015
0.000990016
-0.000861997
0.00105141
-0.000853531
0.001113
-0.00084418
0.00117458
-0.000834608
0.0012354
-0.00081817
0.00129549
-0.000803166
0.00135417
-0.000781942
0.0014112
-0.0007581
0.00146614
-0.000729612
0.00151851
-0.000695273
0.00156799
-0.000655693
0.00161394
-0.00060821
0.00165601
-0.000553737
0.00169349
-0.000489869
0.00172588
-0.00041666
0.00175242
-0.000332507
0.00177247
-0.000236845
0.00178547
-0.000126016
-9.83592e-06
0.00178978
1.90512e-05
-0.000888727
1.32707e-05
5.24472e-05
-0.000869763
8.70213e-05
-0.000854003
0.000122858
-0.000853027
0.00016
-0.000848116
0.000198505
-0.000849818
0.000238441
-0.000859812
0.000279836
-0.000862659
0.000322769
-0.000875153
0.000367246
-0.000877863
0.000413338
-0.000887108
0.000460965
-0.000882937
0.000510352
-0.000896916
0.000561542
-0.000915808
0.000614584
-0.000929183
0.000669111
-0.000916987
0.000725473
-0.000928856
0.000783397
-0.000928122
0.000842847
-0.000929693
0.00090384
-0.000933509
0.000965783
-0.000924958
0.00102886
-0.000925077
0.00109254
-0.000917207
0.00115653
-0.000908167
0.00122063
-0.000898712
0.0012841
-0.00088164
0.00134692
-0.00086599
0.00140841
-0.000843423
0.00146827
-0.00081796
0.00152603
-0.00078738
0.00158118
-0.00075042
0.00163335
-0.00070786
0.00168185
-0.000656715
0.00172631
-0.000598193
0.00176596
-0.000529515
0.00180027
-0.000450976
0.00182845
-0.000360682
0.0018498
-0.000258195
0.00186374
-0.000139956
-1.46626e-05
0.00186856
2.11026e-05
-0.000922464
1.26347e-05
5.59758e-05
-0.000904636
9.20852e-05
-0.000890112
0.000129509
-0.000890451
0.000168292
-0.000886898
0.000208487
-0.000890013
0.000250158
-0.000901483
0.000293333
-0.000905834
0.000338084
-0.000919904
0.000384419
-0.000924198
0.000432402
-0.000935091
0.000481965
-0.0009325
0.000533302
-0.000948252
0.00058645
-0.000968956
0.000641454
-0.000984187
0.000697991
-0.000973524
0.000756366
-0.000987231
0.000816337
-0.000988093
0.000877871
-0.000991227
0.000940981
-0.000996619
0.00100513
-0.00098911
0.00107048
-0.000990429
0.00113653
-0.000983257
0.001203
-0.000974636
0.00126969
-0.000965397
0.00133586
-0.000947807
0.00140145
-0.00093159
0.00146578
-0.000907749
0.00152852
-0.000880696
0.00158916
-0.000848023
0.00164714
-0.000808398
0.00170205
-0.000762774
0.00175318
-0.000707839
0.00180008
-0.0006451
0.00184197
-0.000571397
0.00187826
-0.000487274
0.00190812
-0.000390541
0.00193082
-0.000280892
0.00194573
-0.000154868
-2.00143e-05
0.00195108
2.32583e-05
-0.000957695
1.19721e-05
5.96892e-05
-0.000941067
9.74172e-05
-0.00092784
0.000136516
-0.00092955
0.000177031
-0.000927412
0.000219012
-0.000931994
0.000262519
-0.00094499
0.000307582
-0.000950896
0.000354265
-0.000966588
0.000402579
-0.000972512
0.000452581
-0.000985093
0.000504213
-0.000984132
0.000557644
-0.00100168
0.000612904
-0.00102422
0.000670031
-0.00104131
0.000728744
-0.00103224
0.000789303
-0.00104779
0.000851493
-0.00105028
0.00091528
-0.00105501
0.000980669
-0.00106201
0.00104718
-0.00105562
0.00111494
-0.00105819
0.00118348
-0.0010518
0.00125253
-0.00104369
0.00132188
-0.00103474
0.00139081
-0.00101674
0.00145925
-0.00100003
0.00152647
-0.000974976
0.00159214
-0.000946362
0.00165571
-0.000911594
0.00171658
-0.000869267
0.0017743
-0.000820497
0.00182811
-0.000761648
0.00187753
-0.000694523
0.00192172
-0.00061558
0.00196006
-0.000525615
0.00199165
-0.000422138
0.00201574
-0.000304976
0.00203165
-0.000170776
-2.59015e-05
0.00203753
2.55256e-05
-0.000994499
1.12781e-05
6.35972e-05
-0.000979138
0.00010303
-0.000967273
0.000143894
-0.000970414
0.000186235
-0.000969753
0.000230101
-0.000975861
0.000275549
-0.000990437
0.000322608
-0.000997955
0.000371338
-0.00101532
0.000421752
-0.00102293
0.000473901
-0.00103724
0.000527737
-0.00103797
0.000583404
-0.00105735
0.000640928
-0.00108174
0.000700339
-0.00110073
0.000761391
-0.00109329
0.000824305
-0.0011107
0.000888886
-0.00111486
0.000955098
-0.00112123
0.00102294
-0.00112985
0.00109196
-0.00112465
0.00116228
-0.0011285
0.00123344
-0.00112297
0.0013052
-0.00111544
0.00137731
-0.00110686
0.00144911
-0.00108854
0.00152046
-0.00107138
0.00159066
-0.00104517
0.00165932
-0.00101503
0.00172588
-0.000978158
0.00178971
-0.00093309
0.0018503
-0.000881092
0.00190686
-0.000818208
0.00195887
-0.000746526
0.00200541
-0.000662127
0.00204585
-0.000566056
0.00207924
-0.000455521
0.00210475
-0.000330484
0.00212167
-0.000187702
-3.23312e-05
0.0021281
2.79117e-05
-0.00103296
1.05488e-05
6.77101e-05
-0.00101894
0.000108938
-0.0010085
0.00015166
-0.00101314
0.000195924
-0.00101402
0.000241777
-0.00102171
0.000289271
-0.00103793
0.000338438
-0.00104712
0.000389333
-0.00106621
0.000441971
-0.00107556
0.000496396
-0.00109167
0.000552571
-0.00109414
0.000610617
-0.00111539
0.000670556
-0.00114168
0.000732412
-0.00116258
0.000795967
-0.00115684
0.000861406