/*--------------------------------*- C++ -*----------------------------------*\
| =========                 |                                                 |
| \\      /  F ield         | OpenFOAM: The Open Source CFD Toolbox           |
|  \\    /   O peration     | Version:  5.x                                   |
|   \\  /    A nd           | Web:      www.OpenFOAM.org                      |
|    \\/     M anipulation  |                                                 |
\*---------------------------------------------------------------------------*/
FoamFile
{
    version     2.0;
    format      ascii;
    class       volVectorField;
    location    "200";
    object      U;
}
// * * * * * * * * * * * * * * * * * * * * * * * * * * * * * * * * * * * * * //

dimensions      [0 1 -1 0 0 0 0];

internalField   nonuniform List<vector> 
26000
(
(0.607531 6.54806e-23 -0.216658)
(0.589541 -7.60477e-23 0.24499)
(0.663291 8.91011e-20 0.571998)
(0.784309 -1.10068e-19 0.767929)
(0.917978 1.60211e-19 0.864098)
(1.04532 2.72609e-19 0.89713)
(1.16016 0 0.898457)
(1.26056 0 0.879046)
(1.34474 0 0.848844)
(1.41571 6.76402e-19 0.814303)
(1.47405 -7.40047e-19 0.777422)
(1.52455 0 0.744127)
(1.56475 0 0.702708)
(1.59609 -5.86721e-19 0.661816)
(1.62473 -1.72049e-20 0.62909)
(1.6509 5.94201e-19 0.596645)
(1.67103 0 0.562952)
(1.68757 -1.21884e-18 0.529791)
(1.70107 0 0.498714)
(1.71207 0 0.469035)
(1.7214 0 0.440543)
(1.72834 -5.99317e-19 0.413429)
(1.73386 2.36279e-18 0.387288)
(1.7379 -5.8122e-19 0.362342)
(1.74038 -7.91552e-21 0.338324)
(1.74194 0 0.315344)
(1.7422 -5.61415e-19 0.293468)
(1.74171 1.10704e-18 0.272393)
(1.74024 -1.63086e-18 0.252196)
(1.73798 -1.07595e-18 0.232815)
(1.73512 1.0584e-18 0.214202)
(1.73148 0 0.196295)
(1.72729 0 0.17898)
(1.72227 -1.53942e-18 0.162332)
(1.71672 -3.79362e-22 0.146259)
(1.71051 5.05765e-19 0.130834)
(1.70335 2.52253e-19 0.115785)
(1.69683 1.23586e-19 0.101711)
(1.68209 1.11833e-18 0.0863794)
(1.66951 2.85098e-21 0.0743482)
(0.781528 0 -0.148191)
(0.724213 5.44265e-21 0.0375404)
(0.737077 2.02132e-20 0.238832)
(0.807731 -9.83133e-20 0.41034)
(0.910788 -9.62378e-20 0.53749)
(1.02501 -1.61805e-19 0.620761)
(1.13743 2.72257e-19 0.669797)
(1.24119 -1.02363e-19 0.691151)
(1.33193 -5.00325e-19 0.694911)
(1.40963 -6.27785e-19 0.686004)
(1.47493 6.80392e-19 0.669008)
(1.52957 0 0.649735)
(1.57717 3.80504e-19 0.623494)
(1.61591 -3.78845e-19 0.59854)
(1.64934 0 0.572574)
(1.67896 -4.24039e-19 0.545148)
(1.70411 -1.07774e-20 0.518373)
(1.72521 4.27302e-19 0.49171)
(1.74264 0 0.465935)
(1.7574 8.63707e-19 0.440339)
(1.76966 4.41633e-19 0.41554)
(1.77973 -4.3146e-19 0.391661)
(1.78798 0 0.36824)
(1.79455 8.55408e-19 0.345742)
(1.79968 -9.71985e-21 0.323832)
(1.80362 0 0.302708)
(1.80647 -8.31814e-19 0.282271)
(1.80836 -8.26982e-19 0.262288)
(1.80928 8.24075e-19 0.242928)
(1.80929 0 0.224174)
(1.80854 -4.07608e-19 0.206029)
(1.80706 3.96214e-19 0.188449)
(1.80494 0 0.171366)
(1.80212 0 0.154832)
(1.7987 -3.89391e-19 0.138785)
(1.79469 -3.88571e-19 0.123244)
(1.79006 0 0.108023)
(1.78465 -7.81529e-19 0.0935995)
(1.78004 -2.85412e-21 0.0779605)
(1.77529 2.67606e-21 0.0667737)
(0.921976 3.1584e-20 -0.126082)
(0.864935 -5.26615e-20 -0.0213639)
(0.834864 -9.95361e-20 0.110074)
(0.84357 4.40338e-20 0.251048)
(0.889972 0 0.381355)
(0.963473 -2.16082e-20 0.487635)
(1.05224 -1.36233e-19 0.566194)
(1.14597 5.82995e-20 0.617141)
(1.23672 3.1431e-19 0.645321)
(1.31965 0 0.65555)
(1.39277 -3.88066e-19 0.65279)
(1.45483 2.0624e-19 0.642604)
(1.5101 -4.82977e-19 0.624766)
(1.55849 -1.18507e-20 0.603717)
(1.60012 2.63684e-19 0.580096)
(1.63547 5.69699e-19 0.556064)
(1.66599 2.99712e-19 0.531278)
(1.69241 -3.03103e-19 0.505801)
(1.71463 3.1706e-19 0.480447)
(1.73381 -9.51346e-19 0.454984)
(1.74997 0 0.430334)
(1.76362 3.25527e-19 0.406168)
(1.77521 -3.24269e-19 0.382455)
(1.78481 -6.5722e-19 0.359534)
(1.79278 -6.52039e-19 0.33705)
(1.79922 -6.55368e-19 0.315437)
(1.80434 6.48e-19 0.294421)
(1.80831 4.6135e-21 0.273972)
(1.81117 1.27585e-18 0.254159)
(1.81302 -1.5778e-18 0.234904)
(1.814 -3.16688e-19 0.216303)
(1.81419 6.20474e-19 0.19822)
(1.81365 -6.20293e-19 0.180714)
(1.81243 3.06377e-19 0.163706)
(1.81059 9.28347e-19 0.147239)
(1.80819 0 0.131256)
(1.80521 6.18557e-19 0.115693)
(1.80175 -4.64997e-19 0.100645)
(1.79712 -1.36088e-18 0.0844662)
(1.79268 3.24933e-19 0.0719437)
(1.02482 -2.19838e-20 -0.104171)
(0.979898 3.9682e-20 -0.0394794)
(0.941376 4.24677e-20 0.0447973)
(0.922615 4.22213e-20 0.145865)
(0.931204 1.21853e-20 0.253292)
(0.966547 7.27634e-20 0.355024)
(1.02379 -1.02896e-19 0.442778)
(1.09555 0 0.511033)
(1.17389 0 0.558896)
(1.25198 -2.247e-19 0.587538)
(1.32525 5.29778e-19 0.600468)
(1.39003 -4.68058e-19 0.601943)
(1.44882 3.26917e-19 0.594597)
(1.50226 -1.77179e-19 0.581477)
(1.54924 -1.79978e-19 0.563297)
(1.58894 -6.24501e-19 0.543188)
(1.62323 -4.22079e-19 0.521646)
(1.65332 -2.16428e-19 0.498827)
(1.67894 2.29807e-19 0.475489)
(1.70126 0 0.451626)
(1.72021 4.82716e-19 0.428133)
(1.73637 -4.8492e-19 0.404899)
(1.75025 -4.99609e-19 0.381913)
(1.76191 9.96859e-19 0.359531)
(1.7718 0 0.337484)
(1.78 0 0.316169)
(1.78676 1.50965e-18 0.295402)
(1.79226 3.50681e-22 0.275137)
(1.79658 -3.40155e-21 0.255461)
(1.79984 1.00225e-18 0.236279)
(1.80213 -4.97945e-19 0.217712)
(1.80358 -4.95629e-19 0.199633)
(1.80424 9.89813e-19 0.182105)
(1.80417 2.4281e-19 0.165055)
(1.80344 -2.45951e-19 0.148509)
(1.80214 -4.89148e-19 0.132437)
(1.80025 -4.95308e-19 0.116763)
(1.79792 1.90431e-21 0.101585)
(1.79452 4.81364e-19 0.085632)
(1.79101 1.02405e-21 0.0722828)
(1.09263 2.42027e-20 -0.0864545)
(1.05942 3.94544e-20 -0.0420643)
(1.02549 0 0.0145454)
(0.99944 6.36008e-21 0.0853621)
(0.989004 9.93681e-21 0.16721)
(0.998264 -9.26159e-20 0.253339)
(1.02789 9.57513e-20 0.336737)
(1.0753 0 0.410413)
(1.13529 0 0.469967)
(1.20173 8.02344e-20 0.513006)
(1.26912 -1.01276e-19 0.540351)
(1.33219 -2.10012e-19 0.554024)
(1.39158 0 0.557383)
(1.44751 2.64448e-19 0.553306)
(1.49817 4.26209e-19 0.542125)
(1.54142 -1.50503e-19 0.527098)
(1.57895 3.24385e-19 0.509433)
(1.61218 5.15001e-19 0.48979)
(1.6408 -5.31229e-19 0.468877)
(1.66596 -3.64662e-19 0.446907)
(1.68746 -3.80913e-19 0.424845)
(1.7059 3.83077e-19 0.402687)
(1.72189 3.91105e-19 0.380562)
(1.73544 -7.87705e-19 0.358821)
(1.74708 0 0.33727)
(1.75684 4.0339e-19 0.316326)
(1.76501 -1.19325e-18 0.295834)
(1.77183 -4.01816e-19 0.275786)
(1.77735 -8.04768e-19 0.256275)
(1.78177 7.99275e-19 0.237204)
(1.78515 -4.01711e-19 0.218715)
(1.78765 0 0.200686)
(1.78932 -4.03584e-19 0.183192)
(1.79024 -2.00222e-19 0.166153)
(1.79046 4.1994e-22 0.149601)
(1.79007 5.99161e-19 0.133506)
(1.78907 0 0.117801)
(1.78761 4.05271e-19 0.102575)
(1.78528 7.80109e-19 0.0867198)
(1.78268 2.16018e-19 0.0729242)
(1.14361 -1.72791e-20 -0.0733091)
(1.11834 -3.31289e-20 -0.0405492)
(1.09055 0 -0.000265769)
(1.06514 -3.13884e-20 0.0502516)
(1.04756 1.71389e-20 0.111115)
(1.04234 -1.20394e-22 0.179648)
(1.05245 4.56084e-22 0.25182)
(1.07885 9.27644e-20 0.322001)
(1.11963 -1.27631e-19 0.385016)
(1.17099 0 0.436473)
(1.22813 6.39648e-20 0.474754)
(1.28548 3.19389e-19 0.49934)
(1.3422 5.7763e-21 0.513122)
(1.39788 5.92791e-21 0.518477)
(1.45016 -3.09511e-19 0.515264)
(1.49579 1.19895e-19 0.506268)
(1.53589 -3.63835e-19 0.493233)
(1.57172 -2.67218e-19 0.477342)
(1.60293 -7.75189e-21 0.459361)
(1.63062 2.8034e-19 0.439732)
(1.65445 3.01738e-19 0.419466)
(1.67504 6.01209e-19 0.39869)
(1.69302 -6.18324e-19 0.377668)
(1.70838 3.19143e-19 0.356764)
(1.72169 -6.29665e-19 0.33587)
(1.73295 3.35927e-21 0.315423)
(1.74248 3.29643e-19 0.295313)
(1.75055 -6.5469e-19 0.275574)
(1.75721 0 0.2563)
(1.76268 -9.91937e-19 0.237405)
(1.76704 1.32806e-18 0.21904)
(1.77045 -3.29174e-19 0.201099)
(1.77298 6.63704e-19 0.183672)
(1.77474 0 0.166682)
(1.77577 0 0.15016)
(1.77617 -3.32417e-19 0.134081)
(1.77594 0 0.118385)
(1.7752 0 0.103144)
(1.77374 -3.26224e-19 0.087384)
(1.77193 -5.38882e-19 0.0733273)
(1.18367 0 -0.0631698)
(1.16392 0 -0.0378008)
(1.14143 -3.1412e-20 -0.00766257)
(1.11909 6.25948e-20 0.0295513)
(1.10028 0 0.0749723)
(1.08847 0 0.128088)
(1.08686 -7.04332e-20 0.187323)
(1.09792 -9.06674e-20 0.249179)
(1.12212 1.00876e-19 0.309411)
(1.15816 0 0.36335)
(1.20287 -2.65538e-19 0.408)
(1.2516 1.21835e-19 0.440774)
(1.30269 -6.48171e-20 0.463544)
(1.35537 0 0.477837)
(1.40695 8.24982e-20 0.482917)
(1.45342 2.78001e-19 0.48064)
(1.4951 7.01023e-21 0.472963)
(1.53289 2.06677e-19 0.461453)
(1.56622 -5.50373e-21 0.446948)
(1.59613 2.25264e-19 0.430142)
(1.62208 -2.44619e-19 0.412063)
(1.64468 -2.532e-19 0.392988)
(1.66454 7.69008e-19 0.373329)
(1.68163 -5.20079e-19 0.353479)
(1.69654 5.24353e-19 0.333424)
(1.70925 2.67899e-19 0.313623)
(1.72011 0 0.294016)
(1.72939 5.49304e-19 0.27468)
(1.73717 0 0.255721)
(1.74368 0 0.237074)
(1.74897 2.77932e-19 0.218893)
(1.75325 -1.10362e-18 0.201089)
(1.75658 -5.6156e-19 0.183761)
(1.75909 8.3173e-19 0.166846)
(1.76085 1.40669e-19 0.150376)
(1.76193 -5.58298e-19 0.134335)
(1.76238 -2.82103e-19 0.11867)
(1.76228 -7.08836e-20 0.103438)
(1.76154 -3.42855e-19 0.0877614)
(1.76039 1.52518e-19 0.0735488)
(1.21619 1.44848e-20 -0.0551401)
(1.20038 0 -0.034817)
(1.18209 2.62775e-20 -0.0113514)
(1.16312 3.77061e-21 0.0170196)
(1.14552 0 0.0515246)
(1.13164 0 0.0925357)
(1.12398 4.24034e-20 0.139901)
(1.12522 1.59981e-20 0.191913)
(1.13695 3.5039e-20 0.245789)
(1.15967 -7.67798e-20 0.297646)
(1.19196 -3.74229e-22 0.344226)
(1.23065 4.76119e-20 0.381791)
(1.27404 0 0.411184)
(1.32138 0 0.433022)
(1.37001 1.29149e-19 0.445918)
(1.41556 1.50799e-19 0.450511)
(1.45757 -4.62569e-19 0.448639)
(1.49644 -1.71602e-19 0.44201)
(1.53128 -1.82087e-19 0.431476)
(1.56294 -1.89733e-19 0.417962)
(1.59073 1.96698e-19 0.402489)
(1.61514 0 0.385479)
(1.63677 0 0.367483)
(1.6555 -2.18656e-19 0.348928)
(1.67196 4.38747e-19 0.329913)
(1.68609 -6.74863e-19 0.310923)
(1.69824 -2.27844e-19 0.291951)
(1.70871 2.29583e-19 0.273126)
(1.71758 0 0.25457)
(1.7251 -2.3401e-19 0.236246)
(1.73133 1.49553e-21 0.218313)
(1.73646 -2.31223e-19 0.200701)
(1.74057 0 0.183519)
(1.74381 -4.75245e-19 0.166712)
(1.74623 4.78868e-19 0.150322)
(1.74794 4.80193e-19 0.13434)
(1.749 7.26558e-19 0.118724)
(1.74947 3.03893e-19 0.10352)
(1.74936 -2.92676e-19 0.0879195)
(1.74878 4.74319e-22 0.0736197)
(1.24325 -2.23176e-20 -0.0486488)
(1.23034 2.23916e-20 -0.0319558)
(1.21529 3.12097e-20 -0.0131116)
(1.19933 -5.36408e-20 0.00920365)
(1.18372 -1.23169e-20 0.0360386)
(1.16997 1.29652e-20 0.0680083)
(1.15981 0 0.1056)
(1.15547 2.98273e-20 0.148244)
(1.15881 3.00855e-20 0.194445)
(1.17122 9.79428e-20 0.241465)
(1.19263 -3.53854e-20 0.286514)
(1.22138 1.23107e-19 0.3256)
(1.25617 -8.79213e-20 0.358851)
(1.29657 -5.24642e-20 0.386178)
(1.34037 1.05435e-19 0.405647)
(1.38328 -2.37578e-19 0.416636)
(1.42422 2.60071e-19 0.420595)
(1.46309 1.42154e-19 0.419115)
(1.49865 -1.46303e-19 0.412929)
(1.5315 -1.5791e-19 0.403111)
(1.56073 -4.35761e-21 0.390627)
(1.58669 3.41627e-19 0.376031)
(1.60989 1.77348e-19 0.360004)
(1.63014 0 0.34301)
(1.64807 3.70023e-19 0.325261)
(1.66357 3.87252e-19 0.307266)
(1.67699 1.94394e-19 0.289081)
(1.68863 1.96567e-19 0.27089)
(1.69857 -1.99588e-19 0.252835)
(1.70708 1.99362e-19 0.234916)
(1.71423 4.06473e-19 0.217301)
(1.7202 4.06084e-19 0.199941)
(1.72509 -2.05574e-19 0.182955)
(1.72903 -8.78597e-22 0.166299)
(1.73211 -2.08987e-19 0.150023)
(1.73442 0 0.134124)
(1.73605 -4.21046e-19 0.118577)
(1.73705 -2.11609e-19 0.103418)
(1.73749 4.06699e-19 0.0878957)
(1.73742 1.15328e-19 0.0735557)
(1.2662 1.13728e-20 -0.0433073)
(1.25549 -2.23527e-20 -0.0293312)
(1.24295 -2.19038e-20 -0.0138321)
(1.2295 0 0.00418772)
(1.21594 0 0.0255611)
(1.20324 4.76306e-20 0.0508878)
(1.19253 0 0.0808511)
(1.18546 -1.01281e-19 0.115475)
(1.18369 -2.68056e-20 0.154144)
(1.18885 5.79211e-20 0.195172)
(1.20164 6.18363e-22 0.236512)
(1.22161 -1.73192e-19 0.27454)
(1.24797 7.57793e-20 0.309041)
(1.28079 1.00741e-22 0.339555)
(1.3185 8.71895e-20 0.363847)
(1.35735 3.02075e-19 0.380211)
(1.39586 0 0.389561)
(1.43358 -2.31908e-19 0.393154)
(1.46896 1.27185e-19 0.391464)
(1.50229 -1.29015e-19 0.385608)
(1.53244 1.42698e-19 0.376421)
(1.55958 -1.43259e-19 0.364564)
(1.5841 -3.05707e-19 0.350802)
(1.6057 -1.53418e-19 0.33563)
(1.62498 -4.79556e-19 0.319376)
(1.64177 -4.96017e-19 0.302571)
(1.65641 3.33243e-19 0.285342)
(1.66919 -3.4075e-19 0.267922)
(1.68018 -5.13981e-19 0.250481)
(1.68967 0 0.23306)
(1.69771 -1.76563e-19 0.215839)
(1.70452 3.52166e-19 0.198796)
(1.71017 9.80339e-22 0.18206)
(1.71481 -1.77932e-19 0.165602)
(1.71853 -3.61368e-19 0.149479)
(1.72142 0 0.133696)
(1.72359 0 0.118241)
(1.72509 9.25786e-20 0.103147)
(1.72605 -6.23292e-19 0.0877098)
(1.72643 -1.99301e-19 0.0733649)
(1.28596 0 -0.0388425)
(1.27695 -5.17862e-21 -0.0269625)
(1.26639 7.85864e-23 -0.0139727)
(1.25498 5.14986e-21 0.000895627)
(1.24329 4.231e-20 0.0182914)
(1.23193 2.29418e-20 0.038723)
(1.22162 -2.21814e-20 0.0628667)
(1.21353 6.78936e-20 0.0909982)
(1.20896 -2.42751e-20 0.123009)
(1.20943 2.5903e-20 0.157982)
(1.21593 2.91022e-22 0.194596)
(1.22879 2.98942e-20 0.229884)
(1.2477 0 0.263576)
(1.27311 -3.53827e-19 0.295137)
(1.30423 1.4951e-19 0.322329)
(1.33806 8.27007e-20 0.342686)
(1.37303 0 0.356565)
(1.40851 2.00368e-19 0.364789)
(1.44277 0 0.367474)
(1.47579 -2.2234e-19 0.365653)
(1.50626 0 0.359951)
(1.53412 2.52291e-19 0.351071)
(1.55962 1.43325e-21 0.339828)
(1.58234 5.42082e-19 0.326725)
(1.60279 -2.74934e-19 0.312192)
(1.62075 2.89277e-19 0.296773)
(1.63653 -3.33761e-21 0.28067)
(1.6504 2.95529e-19 0.264166)
(1.66241 6.01888e-19 0.247463)
(1.67286 3.02991e-19 0.230643)
(1.68178 3.07514e-19 0.213902)
(1.6894 1.55189e-19 0.197247)
(1.6958 -3.14323e-19 0.18082)
(1.70113 1.56615e-19 0.16461)
(1.70548 6.3856e-19 0.148682)
(1.70896 -3.1889e-19 0.133052)
(1.71165 -4.05208e-19 0.117717)
(1.71364 -2.00294e-22 0.102712)
(1.71507 7.48733e-19 0.087372)
(1.71588 1.33414e-19 0.073051)
(1.30318 0 -0.035059)
(1.29552 1.94468e-20 -0.0248355)
(1.28654 0 -0.0137831)
(1.2768 0 -0.00129737)
(1.26671 -4.71305e-20 0.0131284)
(1.25669 -6.83949e-20 0.0299049)
(1.24719 -4.11225e-20 0.0496283)
(1.23903 -4.2971e-20 0.0726456)
(1.23314 0 0.0990964)
(1.2308 -2.34169e-20 0.128557)
(1.23304 2.47381e-20 0.160266)
(1.24055 -5.48185e-20 0.191963)
(1.25333 0 0.223471)
(1.27214 1.22849e-19 0.254379)
(1.29681 -2.65544e-19 0.282679)
(1.32521 -1.48638e-19 0.305522)
(1.35592 -8.00699e-20 0.322805)
(1.38828 8.41253e-20 0.334913)
(1.42054 0 0.34157)
(1.45246 1.94891e-19 0.343628)
(1.48259 0 0.34143)
(1.51065 -4.07992e-21 0.335659)
(1.53671 -2.34091e-19 0.327116)
(1.56025 2.34199e-19 0.316283)
(1.58165 2.47785e-19 0.303671)
(1.60062 -2.4961e-19 0.289827)
(1.61743 -2.56157e-19 0.275019)
(1.63231 2.75297e-21 0.259579)
(1.64528 -7.91404e-19 0.243739)
(1.65664 -1.07163e-18 0.227628)
(1.66642 1.81062e-23 0.21146)
(1.67484 -8.18646e-19 0.19527)
(1.68198 -2.77795e-19 0.179217)
(1.68798 0 0.163309)
(1.69296 -2.84353e-19 0.147623)
(1.697 2.8494e-19 0.132184)
(1.70021 2.89603e-19 0.117001)
(1.70267 7.29007e-20 0.102112)
(1.70455 -3.5192e-19 0.0868866)
(1.70576 -1.57806e-19 0.0726156)
(1.31834 0 -0.0318124)
(1.31178 -4.00145e-20 -0.0229239)
(1.30407 -4.31606e-21 -0.0134029)
(1.2957 -2.65796e-20 -0.0027653)
(1.28697 0 0.00938895)
(1.27818 5.37458e-20 0.0233869)
(1.26961 1.79269e-20 0.0397304)
(1.26183 5.83816e-20 0.0587568)
(1.25552 -2.07945e-20 0.0807032)
(1.25167 0 0.105428)
(1.25118 -4.62718e-20 0.13255)
(1.25489 -5.87593e-22 0.160424)
(1.26297 0 0.189013)
(1.27627 -1.11063e-19 0.218108)
(1.29512 5.74038e-20 0.246067)
(1.31819 1.2907e-19 0.269992)
(1.34432 6.79567e-20 0.289468)
(1.37298 1.5195e-19 0.304518)
(1.40254 -1.57819e-19 0.314514)
(1.43264 1.6812e-19 0.320072)
(1.46177 0 0.321221)
(1.48947 -1.90478e-19 0.318549)
(1.51565 1.98018e-19 0.312785)
(1.53964 0 0.304359)
(1.56171 4.23441e-19 0.293829)
(1.5815 -2.23995e-19 0.28172)
(1.59918 -4.51981e-19 0.268364)
(1.61496 4.63092e-19 0.25413)
(1.62883 2.36179e-19 0.23928)
(1.64105 1.43217e-18 0.223988)
(1.65164 -7.2569e-19 0.208486)
(1.66083 7.35126e-19 0.192844)
(1.66868 -2.44561e-19 0.177232)
(1.67534 -2.48277e-19 0.161684)
(1.68093 0 0.146289)
(1.68552 0 0.131083)
(1.68924 0 0.116087)
(1.69216 -6.53876e-20 0.101343)
(1.69448 9.46134e-20 0.0862546)
(1.69607 1.06709e-19 0.0720582)
(1.33182 -8.4248e-21 -0.0289944)
(1.32614 1.64106e-20 -0.0211993)
(1.31947 0 -0.0129124)
(1.31223 3.21961e-20 -0.00373944)
(1.30464 -3.34369e-20 0.00663918)
(1.29694 0 0.0184846)
(1.28929 0 0.0322121)
(1.28211 -5.35501e-20 0.0481196)
(1.27586 -1.96539e-20 0.066465)
(1.27132 3.96676e-20 0.0872541)
(1.26921 1.22842e-19 0.110335)
(1.27036 -4.45693e-20 0.134543)
(1.27501 4.67372e-20 0.159964)
(1.28398 4.9039e-20 0.186594)
(1.29788 -1.06152e-19 0.213187)
(1.31606 -5.78622e-20 0.237038)
(1.33768 6.05202e-20 0.257571)
(1.36239 1.32441e-19 0.274565)
(1.3888 0 0.287128)
(1.41651 -3.00853e-19 0.295634)
(1.44407 3.18628e-19 0.299798)
(1.47087 3.35497e-19 0.300068)
(1.49668 -3.5095e-19 0.297051)
(1.52073 -3.65679e-19 0.291082)
(1.54316 -3.7988e-19 0.282733)
(1.56352 0 0.272483)
(1.58189 2.01177e-19 0.26071)
(1.59844 -2.06534e-19 0.247808)
(1.61309 0 0.234068)
(1.62609 -4.28907e-19 0.219702)
(1.63745 4.36853e-19 0.204961)
(1.64736 2.19902e-19 0.189948)
(1.6559 4.46836e-19 0.174851)
(1.6632 -4.48046e-19 0.159723)
(1.66937 2.27485e-19 0.14467)
(1.67451 0 0.129741)
(1.67873 -2.32695e-19 0.114969)
(1.68209 0 0.100401)
(1.68483 -2.56197e-19 0.0854746)
(1.68678 3.2962e-20 0.0713775)
(1.34387 7.73972e-21 -0.0265218)
(1.33893 0 -0.0196347)
(1.33313 0 -0.0123585)
(1.32682 -7.59921e-21 -0.00436777)
(1.32021 3.83884e-20 0.00459625)
(1.31344 0 0.0147436)
(1.30665 1.66431e-20 0.0264166)
(1.30012 1.69171e-20 0.0398682)
(1.2942 3.44313e-20 0.0553419)
(1.28945 0 0.072912)
(1.28647 3.92035e-20 0.0925538)
(1.28598 4.1068e-20 0.113453)
(1.28822 0 0.13578)
(1.29394 0 0.159689)
(1.30386 9.50037e-20 0.1843)
(1.31781 -1.04432e-19 0.207231)
(1.33526 0 0.227872)
(1.35606 1.47194e-21 0.245874)
(1.37911 -1.23303e-19 0.260191)
(1.40406 1.36114e-19 0.270987)
(1.42958 -4.27683e-19 0.277707)
(1.455 -2.95501e-19 0.28063)
(1.48 -6.26109e-19 0.280208)
(1.50371 8.17941e-19 0.276654)
(1.52617 -1.70347e-19 0.270512)
(1.54681 1.74888e-19 0.262193)
(1.56567 -1.81145e-19 0.252099)
(1.58281 3.69963e-19 0.240634)
(1.59812 5.63938e-19 0.228106)
(1.61181 0 0.214765)
(1.62386 1.96944e-19 0.200875)
(1.63445 -5.90476e-19 0.186573)
(1.64363 -8.06564e-19 0.172061)
(1.65154 2.03046e-19 0.157416)
(1.65828 6.17505e-19 0.142757)
(1.66394 0 0.128151)
(1.66863 1.03836e-21 0.113641)
(1.67244 2.66815e-19 0.0992828)
(1.67558 -5.08264e-20 0.0845449)
(1.67788 -1.15845e-19 0.0705721)
(1.35473 0 -0.0243301)
(1.3504 0 -0.0182061)
(1.34533 0 -0.0117694)
(1.33981 0 -0.00474804)
(1.33401 0 0.00306999)
(1.32806 -1.4794e-20 0.0118552)
(1.32204 -4.55966e-20 0.0218908)
(1.31616 0 0.0333877)
(1.31066 6.60079e-20 0.0465623)
(1.30599 -3.41675e-20 0.0615152)
(1.30261 -3.46601e-20 0.0782854)
(1.30113 -7.69144e-20 0.0963036)
(1.30177 0 0.115786)
(1.30513 0 0.13699)
(1.31197 0 0.159333)
(1.32243 -9.63443e-20 0.180804)
(1.33622 1.99766e-19 0.200841)
(1.35338 -7.62996e-22 0.219059)
(1.37309 3.41974e-19 0.234364)
(1.39511 -4.77052e-19 0.246766)
(1.41829 1.28881e-19 0.255505)
(1.44196 2.68187e-19 0.260691)
(1.46574 1.40478e-19 0.262609)
(1.48873 -4.43546e-19 0.261333)
(1.51087 1.5317e-19 0.257347)
(1.53153 1.59192e-19 0.250972)
(1.55062 1.59405e-19 0.242608)
(1.56817 1.65982e-19 0.232654)
(1.58399 -2.72114e-21 0.221422)
(1.59826 0 0.209189)
(1.61091 0 0.196232)
(1.62211 1.79609e-19 0.182716)
(1.63188 5.49273e-19 0.168857)
(1.64036 0 0.154755)
(1.64764 -7.50745e-19 0.140545)
(1.6538 2.81997e-19 0.126306)
(1.65895 -9.50658e-20 0.112098)
(1.66318 -1.46498e-19 0.097984)
(1.66671 -4.63923e-20 0.0834636)
(1.66935 1.05978e-19 0.0696404)
(1.36457 3.4393e-21 -0.0223686)
(1.36075 -3.44041e-21 -0.0168926)
(1.35629 -2.73196e-20 -0.0111615)
(1.35144 2.72853e-20 -0.00494595)
(1.34634 0 0.00192999)
(1.3411 -2.82244e-20 0.00960615)
(1.33575 2.8445e-20 0.0183179)
(1.33048 0 0.0282406)
(1.32546 -6.07698e-20 0.0395609)
(1.32102 0 0.0523841)
(1.31753 0 0.0667769)
(1.3155 -3.69022e-20 0.0823381)
(1.31509 3.67714e-20 0.0992994)
(1.31681 -7.82393e-20 0.117972)
(1.32134 1.63328e-19 0.137999)
(1.32903 -8.775e-20 0.157728)
(1.33975 -9.00177e-20 0.176683)
(1.35366 -2.92958e-19 0.194508)
(1.37024 -2.07921e-19 0.210145)
(1.38932 2.17097e-19 0.223506)
(1.41002 -1.17598e-19 0.233705)
(1.43167 1.19614e-19 0.240707)
(1.45393 0 0.244633)
(1.47588 2.67187e-19 0.245419)
(1.49738 2.73637e-19 0.243463)
(1.51776 -5.75488e-19 0.238981)
(1.53686 -4.39338e-19 0.23235)
(1.55461 -1.50515e-19 0.223942)
(1.57078 -1.58289e-19 0.214062)
(1.58549 4.71863e-19 0.203004)
(1.59864 0 0.191048)
(1.61036 3.25328e-19 0.178385)
(1.62067 3.32586e-19 0.165241)
(1.62967 -1.68431e-19 0.151741)
(1.63744 6.86368e-19 0.13803)
(1.64408 -5.18105e-19 0.124205)
(1.64967 2.64717e-19 0.110339)
(1.6543 8.89633e-20 0.0965026)
(1.65821 3.03621e-19 0.0822295)
(1.66117 4.83066e-20 0.0685815)
(1.37352 -3.25181e-21 -0.0205968)
(1.37015 -2.28729e-20 -0.0156761)
(1.36621 -3.17287e-22 -0.0105446)
(1.36193 -3.85295e-20 -0.00500665)
(1.35742 -1.30464e-20 0.00108479)
(1.35278 2.63148e-20 0.00784573)
(1.34804 0 0.0154731)
(1.34332 -2.85822e-20 0.0241126)
(1.33877 -8.74918e-20 0.0339235)
(1.33463 3.01998e-20 0.0450055)
(1.33121 -3.1425e-20 0.0574338)
(1.32891 6.58804e-20 0.0709221)
(1.32787 0 0.085698)
(1.32847 7.17336e-20 0.102091)
(1.33133 1.18829e-21 0.1199)
(1.33687 8.09191e-20 0.137793)
(1.34508 0 0.155392)
(1.35622 -1.00452e-21 0.172402)
(1.36997 2.84178e-19 0.187853)
(1.38629 0 0.201613)
(1.40448 2.12554e-19 0.212744)
(1.424 2.2031e-19 0.221096)
(1.44451 0 0.226654)
(1.46517 -2.44489e-19 0.229225)
(1.48576 4.981e-19 0.229111)
(1.5056 6.33451e-21 0.226414)
(1.52445 3.32904e-21 0.221467)
(1.54219 0 0.214599)
(1.55853 -1.97753e-21 0.206097)
(1.57354 -2.89592e-19 0.196256)
(1.58708 -2.94222e-19 0.185352)
(1.59924 -1.90024e-21 0.173598)
(1.61 -1.55172e-19 0.161225)
(1.61947 4.5991e-19 0.148379)
(1.6277 3.13442e-19 0.135216)
(1.63477 -3.15994e-19 0.121849)
(1.64077 -3.22498e-19 0.108362)
(1.64578 0 0.0948383)
(1.65005 -2.00139e-19 0.0808423)
(1.65332 1.33039e-19 0.0673955)
(1.3817 0 -0.0189826)
(1.37871 2.4534e-20 -0.0145415)
(1.37522 3.6484e-20 -0.00992387)
(1.37143 -3.33389e-22 -0.0049619)
(1.36744 -5.09834e-23 0.000468824)
(1.36332 -3.77851e-20 0.0064654)
(1.35911 1.11898e-22 0.0131937)
(1.35489 1.06188e-19 0.0207752)
(1.35078 8.22784e-20 0.029345)
(1.34698 5.76553e-20 0.0389938)
(1.34371 -5.91734e-20 0.0497953)
(1.34133 6.27108e-20 0.0615418)
(1.33993 -6.51775e-20 0.0744462)
(1.3398 4.55145e-22 0.0888323)
(1.34147 7.16982e-20 0.104602)
(1.34539 7.61651e-20 0.120693)
(1.35162 7.98275e-20 0.136818)
(1.36046 2.51533e-19 0.152753)
(1.37175 -8.73458e-20 0.167647)
(1.38554 0 0.181356)
(1.40134 4.13514e-22 0.192954)
(1.41871 -2.58632e-24 0.202214)
(1.43736 -2.14349e-19 0.209015)
(1.45653 2.19681e-19 0.21306)
(1.47599 2.29665e-19 0.214551)
(1.49506 2.87283e-21 0.21348)
(1.51345 -2.4414e-19 0.210122)
(1.53098 -5.07691e-19 0.204749)
(1.54732 -2.81023e-21 0.197616)
(1.56248 -2.63813e-19 0.189008)
(1.57627 2.71734e-19 0.17919)
(1.58876 -5.48548e-19 0.168386)
(1.5999 -1.6469e-21 0.156829)
(1.60977 -2.83818e-19 0.144681)
(1.61841 -4.35151e-19 0.13211)
(1.62587 4.38011e-19 0.119241)
(1.63226 2.98685e-19 0.106171)
(1.63762 -7.57524e-20 0.0929924)
(1.64222 7.36448e-20 0.0793031)
(1.64578 -3.39025e-22 0.0660834)
(1.38921 2.93555e-21 -0.0175)
(1.38655 2.92387e-21 -0.0134761)
(1.38344 -2.92324e-20 -0.00930262)
(1.38007 1.13832e-20 -0.00483457)
(1.37653 -4.13567e-23 3.40992e-05)
(1.37287 3.62855e-20 0.00538548)
(1.36912 0 0.0113601)
(1.36535 0 0.0180598)
(1.36165 -1.30509e-19 0.0255994)
(1.35819 -2.67195e-20 0.0340589)
(1.35513 -5.65313e-20 0.0435069)
(1.35278 -5.96262e-20 0.0537897)
(1.3512 6.02025e-20 0.0651005)
(1.35061 -2.55988e-19 0.0777433)
(1.35146 2.00923e-19 0.0916868)
(1.35418 1.43437e-19 0.106083)
(1.35888 -1.45866e-19 0.120726)
(1.36584 -7.59717e-20 0.135455)
(1.37506 0 0.149548)
(1.38661 0 0.162872)
(1.40021 -1.8019e-19 0.174555)
(1.4155 2.65457e-22 0.184329)
(1.43227 -1.59607e-21 0.192002)
(1.44986 4.08213e-19 0.197199)
(1.46803 -6.31725e-19 0.200033)
(1.48615 -3.58907e-21 0.200394)
(1.50388 2.24466e-19 0.19849)
(1.52101 2.33692e-19 0.194529)
(1.53717 4.75539e-19 0.188725)
(1.55232 -2.41543e-19 0.181339)
(1.56625 2.50867e-19 0.172618)
(1.57896 2.56309e-19 0.162788)
(1.59039 -1.03356e-18 0.15208)
(1.60059 0 0.140667)
(1.60957 0 0.128725)
(1.61739 2.69118e-19 0.11639)
(1.62412 -2.74903e-19 0.103771)
(1.62981 0 0.0909689)
(1.63471 0 0.0776147)
(1.63855 -3.1303e-22 0.0646472)
(1.39612 0 -0.0161281)
(1.39374 5.60269e-21 -0.0124694)
(1.39098 1.65863e-20 -0.00868257)
(1.38798 2.21697e-20 -0.00464156)
(1.38482 2.25404e-20 -0.000255288)
(1.38157 -6.87256e-20 0.00454624)
(1.37822 0 0.00988286)
(1.37486 -2.41886e-20 0.0158404)
(1.37153 9.93725e-20 0.0225165)
(1.36839 -2.59251e-20 0.029981)
(1.36557 -3.20218e-22 0.0382957)
(1.36331 1.12462e-19 0.0473451)
(1.36168 1.15516e-19 0.0573011)
(1.36081 -1.22299e-19 0.0684411)
(1.36111 -6.19753e-20 0.0807735)
(1.36295 -6.60216e-20 0.093622)
(1.36648 -6.9026e-20 0.106841)
(1.37196 -1.44991e-19 0.120329)
(1.37945 0 0.133482)
(1.38909 0 0.146193)
(1.40071 0 0.157668)
(1.41406 -1.74166e-19 0.167628)
(1.429 -1.28686e-21 0.175838)
(1.44498 1.45476e-21 0.181879)
(1.46177 3.05994e-21 0.185785)
(1.4788 -2.01856e-19 0.187361)
(1.49572 6.23915e-19 0.186747)
(1.51228 0 0.184085)
(1.52811 -4.41792e-19 0.179539)
(1.54311 2.25147e-19 0.173338)
(1.55704 6.89532e-19 0.165703)
(1.56986 7.01845e-19 0.156855)
(1.58149 7.20228e-19 0.147014)
(1.59194 -4.82833e-19 0.136363)
(1.60121 0 0.125079)
(1.60932 1.24261e-19 0.11331)
(1.61635 5.12067e-19 0.101171)
(1.62234 -1.29533e-19 0.0887742)
(1.62752 0 0.0757815)
(1.63161 -7.14563e-20 0.0630906)
(1.4025 0 -0.01485)
(1.40038 2.69335e-20 -0.0115128)
(1.3979 -5.34221e-21 -0.00806474)
(1.39523 0 -0.0043956)
(1.39242 -2.16235e-20 -0.000426677)
(1.38951 6.63339e-20 0.00390221)
(1.38653 -4.52653e-20 0.0086938)
(1.38352 2.31711e-20 0.0140209)
(1.38054 -7.15218e-20 0.0199668)
(1.3777 9.89589e-20 0.0265922)
(1.37511 -1.02334e-19 0.0339515)
(1.373 -5.31982e-20 0.0419567)
(1.37138 -5.54321e-20 0.0507591)
(1.37037 1.14342e-19 0.0606074)
(1.3703 -1.79419e-19 0.0715324)
(1.37152 6.3258e-20 0.0829913)
(1.37417 1.31167e-19 0.0948861)
(1.37848 -1.37593e-19 0.107158)
(1.38457 1.42903e-19 0.119313)
(1.3926 0 0.13127)
(1.40249 1.57691e-19 0.142327)
(1.41408 -3.22475e-19 0.152213)
(1.42729 0 0.160677)
(1.44168 3.5269e-19 0.16728)
(1.45707 -1.79597e-19 0.171995)
(1.47292 0 0.174564)
(1.48891 -5.81304e-19 0.17506)
(1.50478 1.98197e-19 0.173561)
(1.52013 -4.0787e-19 0.170176)
(1.53485 2.10202e-19 0.165101)
(1.54865 -2.14906e-19 0.15852)
(1.56148 -2.19861e-21 0.150643)
(1.57321 -2.22706e-19 0.141674)
(1.58383 4.50065e-19 0.131801)
(1.59331 6.88383e-19 0.121196)
(1.60168 1.14351e-19 0.110016)
(1.60896 1.17447e-19 0.0983836)
(1.61521 -3.02013e-19 0.0864169)
(1.62064 8.89757e-20 0.07381)
(1.62496 -3.25778e-20 0.0614185)
(1.40841 2.57183e-21 -0.0136521)
(1.40651 -1.798e-20 -0.0105993)
(1.4043 1.54477e-20 -0.00744976)
(1.4019 -3.0886e-20 -0.00410653)
(1.39939 -3.13712e-20 -0.000501247)
(1.3968 -4.21821e-20 0.00341821)
(1.39413 -3.8098e-22 0.00774041)
(1.39144 0 0.0125275)
(1.38877 -4.59736e-20 0.0178507)
(1.38621 4.76329e-20 0.0237627)
(1.38386 4.85601e-20 0.030311)
(1.3819 0 0.0374277)
(1.38035 5.23309e-20 0.0452447)
(1.37929 1.1021e-19 0.0539827)
(1.37899 1.12757e-19 0.0636837)
(1.37977 0 0.0739093)
(1.38176 8.58818e-22 0.0845958)
(1.38517 5.61499e-22 0.0957166)
(1.39013 -2.70508e-19 0.10687)
(1.39682 2.79557e-19 0.118003)
(1.40522 0 0.128503)
(1.41525 -1.52555e-19 0.138122)
(1.42688 -1.59503e-19 0.146611)
(1.43977 0 0.153532)
(1.45376 -1.69992e-19 0.158816)
(1.4684 -1.77063e-19 0.162159)
(1.48338 1.78361e-19 0.163579)
(1.49845 1.84634e-19 0.163091)
(1.51322 5.69762e-19 0.160756)
(1.52753 5.81684e-19 0.156726)
(1.54109 -7.97497e-19 0.151149)
(1.55382 -2.05247e-19 0.144215)
(1.56556 8.28088e-19 0.13611)
(1.57627 -1.26061e-22 0.127016)
(1.5859 -4.28488e-19 0.117103)
(1.59445 -7.60427e-19 0.106529)
(1.60195 -1.11877e-19 0.0954234)
(1.60841 9.81034e-22 0.0839083)
(1.61406 -2.49534e-19 0.0717084)
(1.61858 -9.01565e-20 0.0596374)
(1.41389 0 -0.0125233)
(1.41218 0 -0.00972329)
(1.41021 -9.81377e-21 -0.00683811)
(1.40807 -1.00491e-20 -0.00378218)
(1.40582 3.99691e-20 -0.000495727)
(1.4035 4.09773e-20 0.00306661)
(1.40112 -3.31478e-22 0.00698155)
(1.39872 0 0.0113025)
(1.39632 8.78282e-20 0.0160906)
(1.39402 -9.09498e-20 0.0213915)
(1.3919 4.68476e-20 0.0272467)
(1.3901 -4.90267e-20 0.0336028)
(1.38865 1.51602e-19 0.0405748)
(1.38759 -1.5674e-19 0.0483565)
(1.38716 0 0.0569949)
(1.38764 0 0.0661329)
(1.38914 0 0.0757315)
(1.39185 0 0.0857857)
(1.39592 -1.28495e-19 0.0959715)
(1.4015 9.28635e-22 0.106257)
(1.40865 1.04947e-21 0.116121)
(1.41732 1.27188e-21 0.125338)
(1.42753 6.12027e-22 0.133675)
(1.43901 -1.53236e-19 0.140714)
(1.45166 -1.59246e-19 0.146355)
(1.4651 4.93406e-19 0.150271)
(1.47903 -8.42668e-19 0.152431)
(1.49323 6.94608e-19 0.152799)
(1.50732 -8.87902e-19 0.151389)
(1.52113 -3.64258e-19 0.14831)
(1.53436 3.73219e-19 0.14367)
(1.54689 -1.6135e-21 0.137636)
(1.55854 -5.82807e-19 0.130371)
(1.56926 -1.97835e-19 0.122049)
(1.57897 0 0.11283)
(1.58765 5.0718e-19 0.102873)
(1.59531 -5.17964e-19 0.0923083)
(1.60195 2.11896e-19 0.0812617)
(1.60778 4.1664e-19 0.0694868)
(1.61248 -4.33507e-22 0.0577551)
(1.41899 0 -0.0114544)
(1.41746 -9.56316e-21 -0.00888016)
(1.41569 3.81835e-20 -0.00623021)
(1.41377 9.49003e-21 -0.00342885)
(1.41176 0 -0.000423587)
(1.40969 -7.88509e-20 0.00282534)
(1.40756 4.01226e-20 0.00638463)
(1.40541 0 0.0103003)
(1.40327 0 0.0146253)
(1.40121 1.92346e-22 0.0193991)
(1.3993 9.02365e-20 0.0246577)
(1.39767 -4.70918e-20 0.0303591)
(1.39632 -9.63024e-20 0.036603)
(1.3953 -1.00912e-19 0.0435587)
(1.39481 0 0.0512739)
(1.39508 -1.09667e-19 0.0594559)
(1.39623 1.12324e-19 0.0680825)
(1.39841 5.76682e-22 0.0771631)