/*--------------------------------*- C++ -*----------------------------------*\
| =========                 |                                                 |
| \\      /  F ield         | OpenFOAM: The Open Source CFD Toolbox           |
|  \\    /   O peration     | Version:  5.x                                   |
|   \\  /    A nd           | Web:      www.OpenFOAM.org                      |
|    \\/     M anipulation  |                                                 |
\*---------------------------------------------------------------------------*/
FoamFile
{
    version     2.0;
    format      ascii;
    class       volScalarField;
    location    "300";
    object      nuTilda;
}
// * * * * * * * * * * * * * * * * * * * * * * * * * * * * * * * * * * * * * //

dimensions      [0 2 -1 0 0 0 0];

internalField   nonuniform List<scalar> 
26000
(
0.000419731
0.000282306
0.000181901
0.000123391
8.64701e-05
6.87445e-05
6.2577e-05
5.72374e-05
5.19329e-05
4.73193e-05
4.38524e-05
4.14589e-05
3.78164e-05
3.56784e-05
3.5731e-05
3.52947e-05
3.5242e-05
3.65497e-05
3.78997e-05
3.99932e-05
4.17514e-05
4.35436e-05
4.58487e-05
4.79549e-05
5.0415e-05
5.29188e-05
5.54867e-05
5.84123e-05
6.14242e-05
6.43048e-05
6.82201e-05
7.39477e-05
7.92133e-05
8.30416e-05
8.58428e-05
8.75348e-05
8.81069e-05
8.78312e-05
8.57671e-05
8.46763e-05
0.00165693
0.00120916
0.000831537
0.000601847
0.000480139
0.000402834
0.00035031
0.000312883
0.000279111
0.000250187
0.000226507
0.000209357
0.000193527
0.000176285
0.000174521
0.000172674
0.000171515
0.000177325
0.000183029
0.000193278
0.000201353
0.00020984
0.000220904
0.000230732
0.000242816
0.000254671
0.000266189
0.000278823
0.00029196
0.000302522
0.000308868
0.000312384
0.000314064
0.00031419
0.000313355
0.000310471
0.000305016
0.000298044
0.000291336
0.000285376
0.00309184
0.00251821
0.00189869
0.00138201
0.00101284
0.000767965
0.000618394
0.000531891
0.000472033
0.000430745
0.000402173
0.000379431
0.00036397
0.00035279
0.000356536
0.000355816
0.000350233
0.00034853
0.000346664
0.000341449
0.000339273
0.00033873
0.000338601
0.000342381
0.000349079
0.000359532
0.000369719
0.000381365
0.000395602
0.000413219
0.000431911
0.000451583
0.000471805
0.0004927
0.000514553
0.000532263
0.000540271
0.000542955
0.000539665
0.000536427
0.00464088
0.00402039
0.00326837
0.00255236
0.00194364
0.00147767
0.00114071
0.000911567
0.000759821
0.000671116
0.000622494
0.000590878
0.000569273
0.0005507
0.000535007
0.000513353
0.000496493
0.000482938
0.000476269
0.000477005
0.000483933
0.000494091
0.000505598
0.00052004
0.000538312
0.000559853
0.000572899
0.000583199
0.000595402
0.000610315
0.000626338
0.000642547
0.000660793
0.00068065
0.000702741
0.000726042
0.000749681
0.000772851
0.000787651
0.000797044
0.00626126
0.00562597
0.00481594
0.00397544
0.00319797
0.00252753
0.0019858
0.00157731
0.00128133
0.00107943
0.000948187
0.000867354
0.000815575
0.000776851
0.000736869
0.000706901
0.000689149
0.000678353
0.000674385
0.000678042
0.000687647
0.000696182
0.000699141
0.000704532
0.000716375
0.000735382
0.000755398
0.000776825
0.000801144
0.000828454
0.00085252
0.000872305
0.000892894
0.000912671
0.000933296
0.000954661
0.000977666
0.00100166
0.00102743
0.00105232
0.00794055
0.00730412
0.00647612
0.00557278
0.00467941
0.0038551
0.00312887
0.00253039
0.00206044
0.00171307
0.00146769
0.00130496
0.0011919
0.00110237
0.00103436
0.000988251
0.000959309
0.000941092
0.000929923
0.000920368
0.000917283
0.000920628
0.000928023
0.000938675
0.0009547
0.000977856
0.000994632
0.00101141
0.0010319
0.00105586
0.00108312
0.00111257
0.00114473
0.00117087
0.00119467
0.00121613
0.00123765
0.00125922
0.00128192
0.00131015
0.00967161
0.00904452
0.00821698
0.00728929
0.00633102
0.00539944
0.00452648
0.00375644
0.00310601
0.00259033
0.00220034
0.00192431
0.00172207
0.00156341
0.00144575
0.00136756
0.00131613
0.00127986
0.00125417
0.00123614
0.00122803
0.0012276
0.001233
0.00124127
0.00125142
0.00126774
0.00128619
0.00130639
0.00132938
0.00135048
0.00137217
0.00139537
0.00142231
0.00145145
0.0014834
0.0015084
0.00153011
0.00154918
0.00156602
0.00159231
0.0114476
0.0108368
0.0100207
0.00909056
0.00810366
0.00710781
0.00613294
0.00522194
0.00440819
0.00372164
0.00316944
0.00275492
0.00243637
0.00218189
0.00198989
0.00185935
0.00177039
0.00170417
0.00165894
0.00162776
0.00161054
0.00160247
0.00159982
0.00160465
0.00161435
0.00163013
0.00164772
0.00166671
0.00168798
0.00170959
0.00173236
0.00175331
0.00177358
0.00179267
0.00181431
0.00183774
0.00186082
0.00187719
0.00188642
0.00190793
0.0132628
0.0126726
0.0118751
0.0109559
0.00996349
0.00893666
0.00789808
0.00688933
0.00594035
0.00509745
0.00438268
0.00381617
0.00336127
0.00298608
0.00269365
0.0024878
0.00234267
0.00223354
0.00215767
0.0021043
0.00206994
0.00204767
0.00203651
0.00203601
0.0020416
0.00205289
0.00206823
0.00208765
0.00210988
0.0021304
0.00215193
0.00217209
0.0021924
0.00220797
0.00222142
0.0022321
0.00224332
0.00225388
0.00225226
0.00226542
0.015112
0.0145453
0.0137706
0.0128712
0.0118881
0.0108534
0.00978213
0.00871027
0.00766664
0.00669558
0.00583219
0.0051146
0.00451298
0.00399879
0.00358294
0.00327864
0.00305631
0.00288763
0.00276673
0.00267894
0.00261755
0.00257639
0.00255143
0.00253989
0.00253587
0.00254233
0.00255433
0.00257025
0.00258941
0.00260948
0.00263126
0.0026496
0.0026674
0.00268133
0.00269229
0.00269618
0.00269594
0.00269219
0.0026756
0.00267544
0.0169899
0.0164491
0.0157015
0.014827
0.0138624
0.0128349
0.0117536
0.0106478
0.00954267
0.00847942
0.0074949
0.00664022
0.00589363
0.00523214
0.00467677
0.00425435
0.0039346
0.00368718
0.00350473
0.00336689
0.00326874
0.00320009
0.00315348
0.00312415
0.00310752
0.00310491
0.00310813
0.00311862
0.00313455
0.00315032
0.00316847
0.00318535
0.00320097
0.00321102
0.00321791
0.00321786
0.00321028
0.00319503
0.00316271
0.00314696
0.0188913
0.0183779
0.0176602
0.0168145
0.0158747
0.0148645
0.0137887
0.0126708
0.011531
0.0104079
0.00933352
0.00836749
0.00748989
0.00668466
0.00598346
0.00542969
0.00499552
0.00465116
0.00439
0.00418685
0.00403836
0.0039311
0.00385242
0.00379928
0.00376423
0.00374519
0.00373721
0.00373897
0.00374573
0.0037561
0.0037699
0.00378161
0.00379289
0.00379886
0.00380002
0.00379327
0.00377954
0.00375492
0.00370714
0.0036784
0.0208111
0.0203259
0.0196398
0.0188259
0.0179153
0.0169293
0.0158696
0.0147553
0.0136016
0.0124426
0.0113092
0.0102575
0.00927389
0.00834042
0.00749839
0.00680922
0.0062495
0.00579349
0.00543775
0.00515395
0.00494064
0.00478212
0.00466102
0.00457519
0.00451219
0.00447232
0.00444823
0.00443502
0.0044308
0.00443182
0.00443701
0.00444247
0.00444671
0.00444522
0.00443997
0.00442486
0.00440219
0.00436855
0.0043063
0.00426396
0.0227442
0.0222876
0.0216343
0.020854
0.0199759
0.0190189
0.0179827
0.0168831
0.0157313
0.0145568
0.0133878
0.0122782
0.0112118
0.0101724
0.00920446
0.00838396
0.00769664
0.00712064
0.00665822
0.00627971
0.00598771
0.00576371
0.00558937
0.00546174
0.00536205
0.00529395
0.00524576
0.00521391
0.00519398
0.00518109
0.00517519
0.00516899
0.0051649
0.00515373
0.00513841
0.00511389
0.0050802
0.00503547
0.00495833
0.00490137
0.0246859
0.0242579
0.0236379
0.0228924
0.0220486
0.021124
0.0201165
0.0190394
0.017901
0.0167266
0.015541
0.0143966
0.0132726
0.0121507
0.0110767
0.0101382
0.00932831
0.00863055
0.00805534
0.00757118
0.0071884
0.00688665
0.0066467
0.00646524
0.00632096
0.00621706
0.00613784
0.00608119
0.00603929
0.00600878
0.00598642
0.0059666
0.0059484
0.00592604
0.00589843
0.0058611
0.00581503
0.0057555
0.00566282
0.0055901
0.0266314
0.0262318
0.0256453
0.0249351
0.0241269
0.0232366
0.0222614
0.0212123
0.0200953
0.0189324
0.017745
0.0165826
0.015424
0.0142438
0.0130882
0.0120496
0.0111284
0.0103132
0.00962241
0.00902816
0.00854643
0.00815696
0.00784054
0.00759446
0.00739577
0.00724648
0.00712971
0.0070404
0.00697169
0.00691707
0.00687535
0.00683631
0.00680213
0.00676295
0.00672129
0.00666862
0.00660759
0.00653155
0.00642037
0.00633016
0.0285764
0.0282048
0.0276516
0.0269767
0.0262046
0.0253499
0.024409
0.0233916
0.0223019
0.0211588
0.019981
0.0188147
0.0176382
0.0164214
0.0152059
0.0140893
0.0130739
0.0121524
0.0113499
0.0106451
0.0100602
0.0095757
0.00917431
0.00885417
0.00859185
0.00838819
0.00822634
0.00809703
0.00799516
0.00791093
0.007843
0.00778216
0.00772659
0.00766853
0.00760772
0.00753768
0.00745786
0.00736398
0.00723085
0.00712177
0.0305162
0.0301721
0.0296524
0.0290121
0.0282761
0.0274575
0.0265523
0.0255689
0.0245102
0.0233929
0.022233
0.0210734
0.0198916
0.0186567
0.0174027
0.0162283
0.0151359
0.0141231
0.0132201
0.0124102
0.0117231
0.0111395
0.0106472
0.0102455
0.00991185
0.00964528
0.00942916
0.00925383
0.00911162
0.00899303
0.0088937
0.00880443
0.00872498
0.00864297
0.00856065
0.00846895
0.00836837
0.00825338
0.00809623
0.00796546
0.0324466
0.0321288
0.0316412
0.0310358
0.0303357
0.0295535
0.0286847
0.0277368
0.0267116
0.0256241
0.0244882
0.0233436
0.0221674
0.0209277
0.0196525
0.0184376
0.0172893
0.0162031
0.0152124
0.014307
0.0135199
0.0128388
0.0122544
0.0117657
0.0113533
0.0110181
0.0107406
0.0105128
0.0103237
0.0101636
0.010029
0.00990645
0.0097972
0.00968847
0.00958013
0.00946408
0.00933946
0.00919925
0.00901655
0.0088612
0.0343641
0.0340716
0.0336148
0.0330433
0.0323787
0.0316325
0.0308003
0.0298886
0.0288986
0.0278436
0.0267359
0.0256122
0.0244495
0.0232155
0.0219339
0.0206953
0.0195072
0.0183634
0.0173024
0.0163122
0.0154346
0.0146609
0.0139841
0.0134079
0.0129131
0.0125051
0.0121598
0.0118722
0.0116318
0.0114244
0.0112483
0.0110887
0.0109456
0.0108045
0.0106673
0.0105232
0.0103704
0.0102034
0.0099921
0.00980834
0.0362652
0.0359973
0.0355698
0.0350309
0.0344008
0.0336901
0.0328941
0.0320189
0.0310648
0.0300441
0.0289673
0.0278687
0.0267252
0.0255039
0.0242278
0.0229795
0.0217653
0.0205824
0.0194666
0.018406
0.017449
0.0165912
0.0158254
0.0151629
0.0145843
0.014099
0.0136833
0.0133309
0.0130326
0.0127746
0.0125524
0.0123497
0.0121679
0.0119917
0.0118216
0.0116452
0.0114622
0.0112655
0.0110223
0.0108082
0.0381456
0.0379006
0.0375017
0.0369945
0.036398
0.0357219
0.0349616
0.0341225
0.0332047
0.0322191
0.0311753
0.0301048
0.0289852
0.0277835
0.0265206
0.0252733
0.0240466
0.0228376
0.0216803
0.0205667
0.0195433
0.018609
0.0177628
0.0170193
0.0163581
0.0157939
0.0153065
0.0148857
0.0145246
0.01421
0.0139369
0.013689
0.0134648
0.0132481
0.013041
0.0128305
0.012614
0.0123842
0.0121056
0.01186
0.0400034
0.0397794
0.0394076
0.0389308
0.0383666
0.0377241
0.0369987
0.0361952
0.0353134
0.0343633
0.0333535
0.0323131
0.0312206
0.0300433
0.0287999
0.0275622
0.0263335
0.0251094
0.023926
0.0227726
0.0216951
0.0206969
0.0197802
0.0189599
0.0182224
0.0175803
0.017019
0.0165304
0.016104
0.0157291
0.015401
0.0151028
0.0148318
0.0145731
0.0143259
0.0140776
0.0138236
0.0135577
0.0132432
0.0129632
0.0418336
0.04163
0.0412843
0.0408367
0.0403036
0.0396935
0.0390019
0.0382332
0.037387
0.0364723
0.0354969
0.0344878
0.0334244
0.0322748
0.0310557
0.0298343
0.0286124
0.0273846
0.0261857
0.0250034
0.023887
0.0228375
0.0218583
0.0209699
0.0201606
0.0194463
0.0188131
0.0182548
0.0177639
0.0173274
0.0169417
0.01659
0.0162682
0.0159633
0.0156728
0.0153834
0.0150911
0.0147871
0.0144336
0.0141168
0.0436349
0.0434503
0.0431293
0.0427095
0.0422062
0.0416273
0.0409683
0.0402334
0.0394219
0.0385423
0.0376013
0.0366242
0.035591
0.0344712
0.0332797
0.0320797
0.0308714
0.0296487
0.0284445
0.0272457
0.026101
0.0250119
0.0239827
0.0230357
0.0221609
0.0213806
0.0206796
0.0200518
0.0194946
0.0189951
0.0185502
0.0181429
0.0177707
0.0174173
0.0170809
0.0167479
0.0164141
0.0160696
0.015675
0.0153189
0.0454054
0.0452385
0.0449408
0.0445472
0.0440723
0.0435231
0.0428954
0.0421932
0.0414155
0.0405702
0.0396634
0.0387185
0.0377165
0.0366277
0.0354651
0.0342907
0.0331013
0.0318902
0.0306886
0.0294834
0.0283207
0.0272013
0.0261328
0.0251381
0.0242093
0.0233675
0.0226027
0.0219121
0.0212895
0.0207272
0.0202224
0.0197583
0.0193331
0.0189293
0.0185452
0.0181668
0.0177893
0.0174022
0.0169646
0.0165673
0.0471434
0.046993
0.046717
0.0463482
0.0459
0.0453791
0.0447814
0.0441105
0.0433656
0.0425537
0.0416806
0.0407679
0.0397976
0.0387414
0.0376106
0.0364631
0.0352959
0.0341011
0.0329072
0.0317047
0.0305322
0.0293957
0.0282992
0.0272663
0.0262898
0.0253962
0.0245729
0.0238222
0.0231395
0.0225166
0.0219527
0.0214316
0.0209524
0.020497
0.0200637
0.0196387
0.019216
0.018785
0.0183029
0.0178628
0.0488478
0.0487125
0.0484567
0.0481111
0.0476881
0.0471939
0.0466248
0.0459838
0.0452703
0.0444909
0.0436506
0.0427697
0.0418313
0.0408086
0.0397121
0.0385929
0.0374503
0.0362762
0.0350964
0.0339022
0.0327288
0.0315827
0.0304672
0.0294055
0.0283921
0.0274524
0.0265799
0.0257746
0.0250323
0.024351
0.0237297
0.0231528
0.0226205
0.0221131
0.0216301
0.0211587
0.0206898
0.0202142
0.0196867
0.0192027
0.0505179
0.0503962
0.0501591
0.0498351
0.0494357
0.0489667
0.0484246
0.0478122
0.0471288
0.0463806
0.0455722
0.0447224
0.0438154
0.0428259
0.0417634
0.040675
0.0395598
0.0384097
0.0372487
0.0360681
0.0349006
0.033752
0.0326251
0.0315419
0.030502
0.0295268
0.0286101
0.0277562
0.0269597
0.0262241
0.0255482
0.0249169
0.0243341
0.0237744
0.0232433
0.0227221
0.0222059
0.021686
0.0211128
0.0205841
0.0521532
0.0520439
0.0518238
0.0515197
0.0511424
0.050697
0.0501803
0.049595
0.0489405
0.0482223
0.0474448
0.0466254
0.0457493
0.0447926
0.0437641
0.0427072
0.0416212
0.0404977
0.0393591
0.0381967
0.0370406
0.035896
0.0347636
0.0336694
0.0326083
0.0316071
0.0306564
0.0297614
0.0289175
0.0281306
0.0274055
0.0267208
0.0260859
0.0254771
0.0248965
0.0243265
0.0237646
0.0231973
0.0225774
0.0220045
0.0537537
0.0536553
0.0534508
0.053165
0.052808
0.0523848
0.051892
0.0513324
0.0507053
0.0500159
0.0492683
0.0484785
0.0476329
0.0467088
0.0457138
0.0446889
0.043633
0.0425381
0.0414245
0.0402839
0.0391439
0.0380093
0.0368798
0.0357809
0.0347071
0.0336838
0.0327074
0.031778
0.0308958
0.0300631
0.0292895
0.0285573
0.0278717
0.0272158
0.0265884
0.02597
0.02536
0.0247472
0.0240812
0.0234615
0.0553198
0.0552308
0.0550403
0.0547712
0.0544331
0.0540304
0.0535601
0.0530247
0.0524237
0.0517618
0.051043
0.0502822
0.0494667
0.0485756
0.0476132
0.0466201
0.045595
0.0445299
0.0434434
0.0423274
0.0412073
0.0400874
0.0389667
0.0378699
0.0367909
0.0357538
0.0347555
0.0338014
0.0328875
0.0320149
0.0311969
0.0304212
0.0296894
0.0289873
0.0283115
0.0276483
0.0269918
0.0263316
0.0256219
0.0249557
0.0568521
0.0567712
0.0565931
0.0563393
0.0560184
0.0556348
0.0551855
0.054673
0.0540967
0.0534613
0.0527702
0.0520373
0.0512509
0.0503911
0.0494618
0.0485009
0.0475073
0.0464733
0.0454159
0.0443264
0.043229
0.0421276
0.0410206
0.0399312
0.0388536
0.0378101
0.0367979
0.0358241
0.0348864
0.0339794
0.0331218
0.0323065
0.031532
0.0307858
0.0300651
0.0293579
0.0286565
0.0279503
0.0271951
0.0264844
0.0583518
0.0582777
0.0581106
0.0578705
0.0575655
0.0571995
0.0567699
0.056279
0.0557262
0.0551159
0.0544515
0.053746
0.0529886
0.0521586
0.0512616
0.0503328
0.0493711
0.0483692
0.0473435
0.0462814
0.0452088
0.044129
0.0430396
0.0419623
0.0408913
0.0398475
0.038828
0.0378385
0.0368831
0.0359496
0.0350584
0.034207
0.0333933
0.0326048
0.0318444
0.031095
0.0303502
0.0295998
0.0287972
0.0280432
0.0598206
0.059752
0.0595944
0.0593666
0.0590761
0.0587264
0.0583153
0.0578447
0.0573143
0.0567281
0.0560893
0.05541
0.05468
0.0538798
0.0530149
0.0521181
0.0511884
0.0502187
0.0492244
0.0481927
0.0471476
0.0460921
0.0450236
0.0439622
0.0429022
0.0418633
0.0408425
0.0398446
0.0388754
0.0379209
0.0370018
0.0361169
0.0352677
0.034443
0.0336428
0.032855
0.0320693
0.0312758
0.0304286
0.029631
0.0612606
0.0611962
0.0610469
0.0608301
0.0605527
0.0602183
0.0598244
0.0593731
0.0588641
0.0583012
0.0576873
0.0570339
0.0563296
0.0555584
0.0547251
0.0538602
0.0529627
0.0520258
0.0510631
0.050063
0.0490476
0.0480187
0.0469741
0.0459316
0.0448862
0.0438564
0.0428391
0.0418386
0.0408604
0.0398902
0.0389485
0.0380369
0.0371558
0.0362977
0.0354604
0.0346349
0.0338104
0.0329747
0.0320865
0.0312454
0.0626744
0.0626131
0.0624709
0.0622639
0.0619985
0.0616782
0.0613006
0.0608678
0.0603793
0.0598387
0.0592492
0.0586194
0.0579408
0.0571982
0.0563962
0.0555631
0.0546982
0.0537954
0.0528638
0.051896
0.0509129
0.0499116
0.0488945
0.0478724
0.0468444
0.0458272
0.0448175
0.043819
0.0428363
0.0418551
0.0408956
0.0399591
0.039053
0.0381657
0.037295
0.036431
0.0355709
0.0346967
0.0337693
0.0328837
0.0640648
0.0640059
0.0638697
0.0636714
0.0634171
0.0631099
0.0627477
0.0623327
0.0618645
0.0613451
0.0607774
0.0601711
0.0595179
0.0588037
0.0580328
0.0572315
0.0563989
0.0555289
0.0546299
0.0536948
0.0527435
0.0517722
0.0507834
0.0497863
0.0487787
0.0477771
0.0467786
0.0457862
0.0448025
0.0438145
0.0428419
0.0418862
0.0409578
0.0400444
0.0391435
0.0382456
0.037349
0.0364397
0.035476
0.0345478
0.0654358
0.0653784
0.0652474
0.065057
0.0648128
0.0645178
0.0641702
0.063772
0.0633216
0.0628224
0.0622768
0.0616939
0.0610661
0.0603803
0.0596404
0.0588712
0.0580718
0.0572336
0.0563672
0.0554656
0.0545462
0.0536061
0.0526466
0.0516779
0.0506925
0.0497087
0.048724
0.047742
0.0467591
0.0457677
0.0447862
0.0438158
0.0428683
0.0419315
0.0410033
0.0400766
0.0391465
0.0382033
0.0372035
0.0362359
0.0667917
0.0667352
0.0666087
0.0664254
0.0661906
0.0659076
0.0655733
0.0651897
0.0647566
0.064277
0.0637532
0.0631937
0.0625914
0.0619339
0.0612251
0.0604882
0.0597199
0.0589146
0.0580817
0.0572148
0.056327
0.0554195
0.0544886
0.0535476
0.0525892
0.051625
0.0506558
0.0496841
0.0487056
0.0477147
0.0467282
0.045747
0.0447832
0.043825
0.0428752
0.0419228
0.040962
0.0399865
0.0389499
0.0379464
0.0681365
0.0680807
0.0679587
0.0677818
0.0675553
0.067282
0.0669601
0.0665912
0.0661753
0.0657152
0.065213
0.064677
0.0641002
0.0634709
0.0627931
0.0620864
0.0613497
0.0605777
0.0597793
0.058945
0.0580899
0.0572141
0.0563137
0.0554007
0.0544688
0.053529
0.052578
0.0516166
0.0506428
0.0496564
0.0486685
0.0476799
0.0467016
0.0457281
0.0447591
0.0437835
0.0427947
0.0417889
0.0407188
0.0396793
0.0694737
0.0694185
0.0692993
0.069128
0.0689095
0.0686463
0.0683369
0.0679828
0.0675841
0.0671433
0.0666629
0.0661505
0.0655999
0.0649981
0.0643489
0.0636725
0.0629677
0.0622295
0.0614632
0.0606626
0.0598417
0.0589971
0.0581286
0.0572431
0.0563373
0.0554204
0.0544887
0.0535418
0.0525766
0.0515954
0.0506084
0.0496156
0.0486274
0.0476408
0.046655
0.0456583
0.0446437
0.0436097
0.0425092
0.0414341
0.0708057
0.0707505
0.0706344
0.070469
0.0702587
0.0700059
0.0697094
0.0693706
0.0689893
0.0685681
0.0681092
0.0676202
0.0670935
0.0665185
0.0658986
0.0652528
0.0645804
0.0638735
0.0631399
0.0623736
0.0615844
0.0607729
0.0599344
0.0590794
0.0582006
0.0573056
0.0563934
0.0554633
0.0545075
0.0535331
0.052549
0.0515548
0.0505599
0.0495629
0.0485625
0.0475469
0.0465085
0.0454477
0.0443178
0.0432094
0.0721365
0.0720814
0.0719687
0.0718092
0.0716075
0.0713656
0.0710822
0.0707589
0.0703961
0.0699946
0.0695568
0.0690896
0.0685871
0.0680393
0.0674487
0.0668339
0.0661913
0.0655162
0.0648157
0.0640808
0.0633235
0.0625433
0.0617357
0.0609097
0.0600577
0.059188
0.0582957
0.0573792
0.0564356
0.0554704
0.0544915
0.0534982
0.0524994
0.0514944
0.0504815
0.0494489
0.0483886
0.0473024
0.0461438
0.0450041
0.07347
0.0734153
0.0733064
0.0731533
0.0729603
0.0727301
0.0724601
0.0721518
0.0718053
0.071423
0.0710066
0.0705626
0.0700852
0.0695656
0.0690041
0.0684181
0.0678058
0.067163
0.0664933
0.0657902
0.0650655
0.0643153
0.0635389
0.0627413
0.0619138
0.061067
0.0601941
0.0592913
0.0583627
0.0574088
0.0564371
0.0554467
0.0544462
0.0534355
0.052412
0.051364
0.0502835
0.049173
0.0479856
0.0468183
0.07481
0.0747563
0.0746519
0.0745054
0.074321
0.0741008
0.0738437
0.0735509
0.073222
0.0728593
0.0724647
0.0720447
0.0715921
0.0710983
0.0705654
0.0700099
0.0694278
0.0688151
0.0681776
0.0675062
0.0668115
0.0660922
0.0653439
0.0645736
0.0637726
0.0629483
0.0620942
0.0612061
0.0602918
0.05935
0.0583871
0.0574015
0.0564012
0.0553865
0.0543541
0.0532916
0.0521927
0.0510586
0.0498466
0.0486512
0.0761597
0.0761067
0.0760063
0.0758665
0.0756911
0.0754822
0.0752389
0.0749626
0.0746518
0.074309
0.0739357
0.0735375
0.0731092
0.0726426
0.0721378
0.0716101
0.0710574
0.0704759
0.0698681
0.0692277
0.0685648
0.0678742
0.0671553
0.066411
0.0656327
0.0648287
0.0639918
0.0631225
0.0622241
0.0612956
0.0603426
0.0593632
0.0583647
0.0573477
0.056308
0.0552308
0.0541158
0.0529621
0.0517265
0.0505031
0.0775234
0.0774711
0.0773749
0.0772428
0.0770772
0.07688
0.0766501
0.0763885
0.0760951
0.075772
0.0754212
0.0750461
0.0746416
0.0741997
0.073722
0.0732235
0.0726998
0.0721466
0.0715693
0.0709593
0.070326
0.069664
0.068972
0.0682517
0.0674978
0.0667127
0.0658942
0.065043
0.064161
0.0632466
0.0623045
0.0613324
0.0603373
0.0593193
0.058274
0.0571857
0.0560554
0.0548827
0.0536246
0.0523735
0.0789045
0.0788527
0.0787601
0.0786349
0.0784791
0.0782948
0.0780793
0.0778337
0.0775579
0.0772538
0.076923
0.0765708
0.0761904
0.0757739
0.0753228
0.0748504
0.0743554
0.0738306
0.0732803
0.0726995
0.0720933
0.0714597
0.0707925
0.0700976
0.0693661
0.0686003
0.0678011
0.0669685
0.0661034
0.0652037
0.0642734
0.0633097
0.0623188
0.0613013
0.0602519
0.0591545
0.0580102
0.0568194
0.0555401
0.0542608
0.0803066
0.0802549
0.0801658
0.080047
0.0799011
0.0797288
0.0795276
0.0792982
0.0790403
0.0787554
0.0784446
0.078113
0.0777554
0.0773647
0.0769401
0.0764938
0.0760243
0.0755276
0.0750042
0.0744491
0.0738701
0.073262
0.072619
0.0719466
0.0712343
0.0704909
0.0697127
0.0688994
0.0680518
0.0671674
0.0662493
0.0652948
0.0643092
0.0632931
0.0622408
0.0611359
0.059979
0.0587708
0.057472
0.0561678
0.0817327
0.0816809
0.0815944
0.0814812
0.0813436
0.0811825
0.0809953
0.0807829
0.0805432
0.0802776
0.0799872
0.0796765
0.0793408
0.0789728
0.078574
0.0781532
0.0777089
0.0772377
0.07674
0.07621
0.0756552
0.0750688
0.0744482
0.0737968
0.0731079
0.0723868
0.0716298
0.0708361
0.0700063
0.0691374
0.0682322
0.0672874
0.0663079
0.065294
0.0642399
0.0631288
0.0619607
0.0607341
0.0594192
0.0580923
0.0831851
0.083133
0.083049
0.0829407
0.0828108
0.08266
0.0824866
0.0822898
0.0820676
0.0818209
0.0815504
0.0812604
0.0809461
0.0806003
0.0802249
0.0798277
0.0794069
0.0789584
0.0784851
0.077979
0.0774472
0.076882
0.0762838
0.0756545
0.0749882
0.074289
0.0735528
0.0727787
0.0719667
0.0711135
0.0702213
0.0692866
0.0683137
0.0673029
0.0662478
0.0651317
0.063954
0.0627127
0.0613818
0.0600354
0.0846654
0.084613
0.0845312
0.0844274
0.0843042
0.0841626
0.0840007
0.0838183
0.0836132
0.0833849
0.0831337
0.0828635
0.0825697
0.0822449
0.0818907
0.0815153
0.0811168
0.0806914
0.080238
0.0797536
0.0792427
0.0787013
0.0781262
0.0775194
0.0768752
0.0761974
0.0754816
0.0747267
0.0739321
0.0730946
0.0722155
0.0712912
0.0703255
0.0693183
0.0682631
0.0671431
0.0659573
0.0647033
0.0633578
0.0619931
0.0861739
0.0861213
0.0860417
0.0859421
0.0858251
0.0856917
0.0855402
0.0853702
0.0851801
0.0849692
0.0847361
0.0844844
0.0842103
0.0839049
0.0835685
0.0832128
0.0828347
0.0824295
0.0819988
0.0815367
0.0810478
0.0805287
0.0799758
0.0793909
0.0787681
0.0781111
0.0774151
0.0766789
0.0759014
0.0750792
0.0742133
0.0732995
0.0723413
0.0713382
0.0702837
0.0691609
0.0679684
0.0667037
0.0653453
0.0639639
0.0877098
0.0876574
0.08758
0.0874845
0.0873735
0.0872477
0.0871055
0.0869467
0.0867694
0.0865732
0.0863564
0.0861199
0.0858615
0.0855742
0.0852581
0.0849223
0.0845644
0.0841796
0.0837698
0.083329
0.0828614
0.0823635
0.0818319
0.0812678
0.0806657
0.0800285
0.0793516
0.0786334
0.0778726
0.0770655
0.0762126
0.0753096
0.074359
0.0733605
0.0723073
0.0711828
0.0699852
0.0687115
0.067342
0.0659461
0.0892712
0.0892192
0.0891442
0.0890529
0.0889475
0.0888288
0.0886954
0.0885466
0.0883809
0.0881975
0.0879948
0.0877731
0.0875303
0.0872598
0.0869619
0.0866446
0.0863056
0.0859402
0.08555
0.0851293
0.0846818
0.0842039
0.0836924
0.0831482
0.0825656
0.0819474
0.0812888
0.080588
0.0798434
0.0790511
0.0782111
0.0773188
0.0763763
0.0753825
0.0743313
0.0732064
0.0720051
0.0707244
0.0693456
0.0679375
0.0908544
0.0908033
0.0907309
0.0906437
0.0905438
0.090432
0.0903066
0.0901672
0.090012
0.0898404
0.0896504
0.0894424
0.0892142
0.0889594
0.0886781
0.088378
0.0880564
0.0877091
0.0873372
0.0869352
0.0865064
0.0860474
0.0855548
0.0850293
0.0844653
0.0838651
0.083224
0.0825399
0.081811
0.0810332
0.0802061
0.0793248
0.0783904
0.0774013
0.0763528
0.0752288
0.074026
0.0727401
0.071354
0.069936
0.0924552
0.0924052
0.0923356
0.0922526
0.0921581
0.0920528
0.0919351
0.0918044
0.091659
0.0914981
0.0913199
0.0911245
0.0909096
0.0906693
0.0904033
0.0901189
0.0898135
0.0894828
0.0891279
0.0887432
0.088332
0.0878906
0.0874157
0.0869078
0.0863614
0.0857783
0.085154
0.084486
0.0837724
0.0830089
0.0821947
0.0813246
0.0803988
0.0794132
0.0783687
0.0772476
0.0760456
0.0747563
0.0733646
0.0719392
0.0940687
0.0940201
0.0939536
0.0938747
0.0937854
0.0936863
0.0935758
0.0934533
0.093317
0.0931661
0.0929987
0.0928148
0.0926122
0.092385
0.0921332
0.0918633
0.0915727
0.0912574
0.0909181
0.0905496
0.0901547
0.0897297
0.0892715
0.0887802
0.0882504
0.0876838
0.0870755
0.0864232
0.0857245
0.0849752
0.084174
0.0833154
0.0823991
0.0814203
0.0803809
0.079264
0.0780626
0.0767706
0.075375
0.0739447
0.0956898
0.0956429
0.0955794
0.0955047
0.0954205
0.0953274
0.0952237
0.0951087
0.0949809
0.0948391
0.0946817
0.0945083
0.0943169
0.0941019
0.093863
0.0936065
0.0933296
0.0930285
0.0927037
0.0923502
0.0919704
0.0915609
0.0911183
0.0906427
0.0901288
0.0895779
0.0889851
0.088348
0.0876641
0.0869289
0.0861408
0.0852942
0.0843883
0.0834179
0.082385
0.0812754
0.080074
0.0787803
0.0773824
0.0759495
0.0973131
0.0972681
0.0972078
0.0971372
0.097058
0.0969705
0.0968731
0.0967653
0.0966452
0.0965119
0.0963636
0.0961999
0.0960188
0.095815
0.095588
0.0953437
0.0950795
0.0947915
0.0944802
0.0941407
0.0937752
0.0933801
0.0929524
0.0924918
0.091993
0.0914572
0.0908796
0.0902574
0.089588
0.0888669
0.0880921
0.087258
0.0863633
0.0854024
0.0843771
0.0832735
0.0820751
0.080782
0.0793839
0.0779508
0.0989335
0.0988906
0.0988335
0.098767
0.0986925
0.0986103
0.0985189
0.0984176
0.0983048
0.0981793
0.0980394
0.0978846
0.097713
0.0975194
0.0973035
0.0970706
0.096818
0.0965423
0.0962435
0.0959172
0.095565
0.0951837
0.0947701
0.0943237
0.0938396
0.0933185
0.0927556
0.0921481
0.0914932
0.0907862
0.0900251
0.089204
0.0883212
0.087371
0.0863542
0.0852563
0.084063
0.0827729
0.0813769
0.079946
0.100546
0.100505
0.100452
0.100389
0.100319
0.100242
0.100156
0.100061
0.0999547
0.0998365
0.0997043
0.0995577
0.0993948
0.0992107
0.099005
0.0987827
0.098541
0.0982767
0.0979898
0.0976757
0.0973363
0.096968
0.0965679
0.0961353
0.0956654
0.0951586
0.0946101
0.0940172
0.0933768
0.0926841
0.091937
0.0911295
0.0902595
0.0893213
0.088314
0.087221
0.0860356
0.0847505
0.083359
0.0819322
0.102147
0.102108
0.102057
0.101998
0.101933
0.10186
0.10178
0.10169
0.10159
0.101479
0.101354
0.101215
0.10106
0.100885
0.100689
0.100476
0.100245
0.0999911
0.0997154
0.0994131
0.0990857
0.0987299
0.0983428
0.0979236
0.0974675
0.0969747
0.0964405
0.095862
0.0952361
0.0945581
0.0938253
0.0930318
0.0921757
0.0912514
0.0902545
0.0891697
0.0879918
0.0867128
0.0853266
0.0839065
0.103731
0.103694
0.103647
0.103591
0.10353
0.103462
0.103386
0.103302
0.103208
0.103103
0.102984
0.102852
0.102705
0.102538
0.102351
0.102148
0.101926
0.101682
0.101417
0.101126
0.10081
0.100467
0.100092
0.0996859
0.0992433
0.0987643
0.0982443
0.0976803
0.097069
0.0964057
0.0956876
0.0949089
0.0940675
0.0931599
0.0921734
0.0910981
0.089929
0.0886572
0.0872771
0.0858663
0.105294
0.10526
0.105216
0.105164
0.105106
0.105043
0.104972
0.104893
0.104804
0.104704
0.104592
0.104467
0.104327
0.104168
0.103989
0.103794
0.103581
0.103348
0.103092
0.102812
0.102508
0.102176
0.101813
0.10142
0.100991
0.100525
0.100019
0.0994698
0.0988732
0.0982249
0.097522
0.0967584
0.0959322
0.0950398
0.0940666
0.0930032
0.0918446
0.0905816
0.0892073
0.0878095
0.106835
0.106803
0.106761
0.106713
0.106659
0.106599
0.106533
0.106458
0.106375
0.106281
0.106175
0.106056
0.105922
0.10577
0.105599
0.105413
0.105209
0.104984
0.104739
0.104469
0.104175
0.103855
0.103504
0.103123
0.102707
0.102256
0.101764
0.101229
0.100647
0.100014
0.0993266
0.0985789
0.0977684
0.0968913
0.0959327
0.0948828
0.0937363
0.092484
0.0911195
0.0897352
0.10835
0.10832
0.108281
0.108236
0.108186
0.10813
0.108067
0.107997
0.107919
0.10783
0.10773
0.107617
0.107489
0.107344
0.107181
0.107002
0.106806
0.106591
0.106355
0.106095
0.105812
0.105502
0.105164
0.104795
0.104392
0.103954
0.103476
0.102955
0.102389
0.101771
0.1011
0.100369
0.0995749
0.0987139
0.0977705
0.0967352
0.0956022
0.0943624
0.0930101
0.0916411
0.109837
0.10981
0.109773
0.109731
0.109684
0.109631
0.109573
0.109507
0.109433
0.109349
0.109255
0.109149
0.109026
0.108887
0.108731
0.10856
0.108372
0.108165
0.107938
0.107688
0.107415
0.107117
0.10679
0.106433
0.106043
0.105618
0.105154
0.104649
0.104097
0.103496
0.102841
0.102127
0.101351
0.100506
0.0995787
0.0985588
0.0974407
0.0962149
0.0948767
0.0935244
0.111295
0.111269
0.111235
0.111196
0.111152
0.111103
0.111047
0.110986
0.110916
0.110837
0.110748
0.110647
0.11053
0.110398
0.110248
0.110084
0.109904
0.109706
0.109488
0.109247
0.108984
0.108697
0.108381
0.108037
0.107659
0.107248
0.106798
0.106307
0.105771
0.105186
0.104548
0.103852
0.103097
0.102267
0.101356
0.100352
0.0992501
0.0980397
0.0967173
0.095383
0.112721
0.112697
0.112665
0.112629
0.112588
0.112542
0.11249
0.112432
0.112366
0.112292
0.112207
0.112111
0.112
0.111874
0.111731
0.111575
0.111402
0.111212
0.111002
0.110771
0.110518
0.110241
0.109937
0.109604
0.109239
0.108841
0.108405
0.107929
0.107409
0.10684
0.106219
0.105542
0.104806
0.103994
0.1031
0.102114
0.101029
0.0998354
0.0985302
0.0972148
0.114115
0.114092
0.114063
0.114029
0.113991
0.113948
0.113899
0.113845
0.113783
0.113712
0.113632
0.113541
0.113436
0.113315
0.113179
0.113029
0.112864
0.112682
0.112481
0.112259
0.112015
0.111748
0.111455
0.111134
0.110782
0.110397
0.109976
0.109514
0.10901
0.108458
0.107855
0.107197
0.106479
0.105685
0.104809
0.103842
0.102775
0.1016
0.100313
0.0990179
0.115475
0.115454
0.115427
0.115396
0.11536
0.11532
0.115274
0.115223
0.115165
0.115098
0.115022
0.114936
0.114836
0.114721
0.114591
0.114448
0.11429
0.114115