/*--------------------------------*- C++ -*----------------------------------*\
| =========                 |                                                 |
| \\      /  F ield         | OpenFOAM: The Open Source CFD Toolbox           |
|  \\    /   O peration     | Version:  5.x                                   |
|   \\  /    A nd           | Web:      www.OpenFOAM.org                      |
|    \\/     M anipulation  |                                                 |
\*---------------------------------------------------------------------------*/
FoamFile
{
    version     2.0;
    format      ascii;
    class       volScalarField;
    location    "300";
    object      p;
}
// * * * * * * * * * * * * * * * * * * * * * * * * * * * * * * * * * * * * * //

dimensions      [0 2 -2 0 0 0 0];

internalField   nonuniform List<scalar> 
26000
(
-0.000502891
-0.527472
-0.477375
-0.543546
-0.648924
-0.668369
-0.587774
-0.449066
-0.284436
-0.118156
0.0415543
0.18942
0.319805
0.441855
0.550231
0.642966
0.725956
0.803381
0.87551
0.944777
1.01096
1.07402
1.13545
1.19445
1.25197
1.30775
1.36153
1.41409
1.46501
1.51498
1.56356
1.61097
1.65702
1.7016
1.74508
1.78733
1.82856
1.86888
1.90921
1.94983
2.4833
1.75812
1.00304
0.277431
-0.263821
-0.565986
-0.654169
-0.598751
-0.456594
-0.2827
-0.108125
0.0537028
0.20117
0.339815
0.462842
0.566471
0.658852
0.74358
0.821739
0.89618
0.96623
1.03323
1.09809
1.16024
1.22076
1.27911
1.33558
1.39055
1.44374
1.49581
1.54646
1.5958
1.64357
1.68977
1.7347
1.77836
1.82087
1.86246
1.90401
1.94529
2.82313
2.37272
1.8588
1.26306
0.629681
0.0658901
-0.322733
-0.505985
-0.509757
-0.399859
-0.238674
-0.0658112
0.0952747
0.25377
0.393812
0.510732
0.611537
0.703673
0.787164
0.865468
0.939108
1.00849
1.07588
1.1402
1.20255
1.26289
1.32083
1.37744
1.43197
1.48524
1.53706
1.58748
1.63649
1.68379
1.72984
1.77439
1.81776
1.86025
1.90233
1.94468
3.02694
2.63643
2.25181
1.85421
1.38028
0.843961
0.329151
-0.0672544
-0.28931
-0.340837
-0.27299
-0.138118
0.0105314
0.174545
0.325997
0.454344
0.563191
0.662197
0.751132
0.833835
0.911357
0.983552
1.05356
1.12018
1.18455
1.24683
1.3063
1.3645
1.42052
1.47519
1.52832
1.57989
1.63011
1.67849
1.72562
1.77105
1.81527
1.8586
1.90122
1.94454
3.17439
2.89245
2.56617
2.23145
1.8666
1.44729
0.976274
0.51544
0.141644
-0.0847906
-0.163882
-0.121988
-0.0272529
0.114588
0.264212
0.400429
0.516864
0.622692
0.717103
0.804137
0.885476
0.960392
1.03283
1.10161
1.16786
1.23201
1.29299
1.35273
1.41016
1.46615
1.52049
1.57314
1.6245
1.6739
1.72209
1.76846
1.81357
1.85775
1.90089
1.94516
3.24563
3.04808
2.80322
2.52567
2.21959
1.88371
1.49743
1.07621
0.661076
0.322709
0.102708
0.0219059
0.0235226
0.105181
0.227103
0.358585
0.477409
0.58807
0.686971
0.777539
0.862143
0.939501
1.0142
1.08498
1.15296
1.21886
1.28128
1.34245
1.40119
1.45838
1.51386
1.56754
1.61995
1.67029
1.71945
1.7667
1.81266
1.85768
1.90135
1.94658
3.28477
3.13296
2.95179
2.73869
2.48884
2.21183
1.89559
1.54158
1.15742
0.788247
0.48206
0.291701
0.187366
0.178378
0.240783
0.34509
0.453617
0.562787
0.663361
0.756032
0.843075
0.922355
0.998902
1.07129
1.1406
1.2079
1.27154
1.33395
1.39381
1.45206
1.50859
1.56321
1.61657
1.66778
1.71781
1.76587
1.81259
1.85838
1.90257
1.94871
3.31008
3.1856
3.04382
2.8808
2.68405
2.45902
2.19863
1.9059
1.57663
1.23002
0.899626
0.641863
0.451478
0.345911
0.326526
0.379224
0.459044
0.55494
0.650972
0.742558
0.830272
0.910288
0.987803
1.06118
1.13136
1.19968
1.26424
1.32762
1.38838
1.44749
1.50489
1.5603
1.61447
1.66645
1.71727
1.76604
1.81344
1.85993
1.90459
1.95154
3.32655
3.22123
3.10457
2.97518
2.82014
2.64039
2.42802
2.18668
1.91173
1.6087
1.29583
1.0151
0.775953
0.593155
0.489993
0.475159
0.508332
0.575684
0.656977
0.741351
0.82632
0.905069
0.982211
1.05566
1.12601
1.19478
1.25981
1.3238
1.38518
1.44492
1.50298
1.55901
1.61383
1.66644
1.71791
1.76731
1.8153
1.86239
1.90746
1.95511
3.337
3.24596
3.14677
3.03985
2.91447
2.77031
2.59849
2.40071
2.17333
1.91656
1.64002
1.36747
1.11535
0.887476
0.717802
0.634413
0.610712
0.635699
0.690136
0.758458
0.835123
0.909304
0.983932
1.05601
1.12549
1.19395
1.25884
1.32295
1.38456
1.44461
1.50308
1.55951
1.61481
1.66789
1.71987
1.76977
1.81826
1.86585
1.91125
1.95949
3.34346
3.26336
3.17711
3.08593
2.98121
2.86307
2.72321
2.56145
2.37435
2.15979
1.92383
1.6757
1.43497
1.19299
0.983748
0.844528
0.765171
0.740542
0.757955
0.800591
0.861651
0.926434
0.995313
1.06389
1.13104
1.19811
1.26204
1.32564
1.38697
1.44693
1.50547
1.56204
1.61759
1.67094
1.72327
1.77353
1.82239
1.87038
1.91603
1.96476
3.34721
3.27573
3.19944
3.11989
3.03
2.93049
2.81456
2.68118
2.52705
2.34866
2.15071
1.93282
1.71583
1.48181
1.25925
1.0842
0.960342
0.887783
0.863412
0.872857
0.910807
0.960359
1.01921
1.08139
1.14415
1.20838
1.2703
1.33254
1.39295
1.4523
1.5105
1.56687
1.62238
1.67577
1.72825
1.77871
1.8278
1.87607
1.92186
1.97098
3.34913
3.28456
3.21616
3.14558
3.06682
2.98092
2.8826
2.77078
2.64266
2.494
2.32885
2.14117
1.95179
1.73789
1.52142
1.33078
1.17864
1.0674
1.00325
0.976536
0.985766
1.01451
1.05858
1.11078
1.16656
1.22605
1.28458
1.34441
1.4031
1.46121
1.51855
1.5743
1.62944
1.68259
1.73498
1.78543
1.83458
1.88299
1.92881
1.97822
3.34981
3.29092
3.2289
3.16544
3.09533
3.01974
2.93457
2.83894
2.73081
2.60581
2.46761
2.30727
2.14464
1.95545
1.75637
1.56607
1.40175
1.26502
1.16866
1.10811
1.08656
1.09068
1.11567
1.15417
1.2
1.2525
1.30598
1.36211
1.4181
1.47418
1.53005
1.5847
1.63906
1.69162
1.74364
1.79385
1.84287
1.89125
1.93695
1.98656
3.34964
3.29552
3.23879
3.18111
3.11793
3.05042
2.97534
2.89201
2.79912
2.69259
2.57583
2.43887
2.29993
2.13548
1.95842
1.7787
1.61492
1.46597
1.3479
1.26008
1.20966
1.18813
1.1913
1.21294
1.24592
1.28899
1.33553
1.38648
1.4386
1.49175
1.54544
1.59839
1.6515
1.7031
1.75443
1.80413
1.8528
1.90095
1.94637
1.99605
3.34893
3.29888
3.24662
3.19375
3.13625
3.07526
3.00817
2.9344
2.85324
2.76104
2.66106
2.54338
2.42441
2.28238
2.12772
1.96377
1.80878
1.65843
1.52922
1.42287
1.34871
1.30345
1.28427
1.28718
1.30503
1.33639
1.3741
1.41825
1.46526
1.51446
1.56513
1.61574
1.66706
1.71727
1.76754
1.81642
1.86449
1.91221
1.95717
2.00677
3.34786
3.30136
3.25296
3.20418
3.15145
3.09584
3.03523
2.96911
2.89716
2.8162
2.7293
2.62723
2.52456
2.40183
2.26767
2.12109
1.97912
1.83477
1.70321
1.58708
1.49598
1.43127
1.3915
1.3755
1.37703
1.39496
1.42216
1.45797
1.49856
1.54274
1.58952
1.63707
1.686
1.73434
1.78314
1.83088
1.87806
1.92512
1.96942
2.01877
3.3466
3.30322
3.25821
3.21298
3.16434
3.11327
3.05804
2.99818
2.93363
2.86164
2.78505
2.69555
2.60603
2.49936
2.38292
2.25317
2.12558
1.9914
1.86368
1.74508
1.64405
1.56534
1.5085
1.47513
1.46046
1.46414
1.47965
1.50584
1.53882
1.57691
1.61889
1.66265
1.70857
1.75452
1.80142
1.84766
1.89364
1.93977
1.9832
2.03211
3.34526
3.30467
3.26268
3.2206
3.17552
3.12837
3.0777
3.02307
2.96461
2.8999
2.83157
2.75228
2.67332
2.57984
2.47822
2.36366
2.25005
2.12775
2.00757
1.89179
1.78691
1.69976
1.63029
1.58237
1.55291
1.54253
1.54588
1.56159
1.58601
1.61709
1.65343
1.69265
1.73492
1.77795
1.82249
1.86685
1.91132
1.95626
1.9986
2.04684
3.3439
3.30585
3.26659
3.22732
3.18542
3.14171
3.09498
3.04482
2.99146
2.93279
2.8712
2.80027
2.72989
2.64721
2.5578
2.45645
2.35551
2.24519
2.13432
2.02462
1.9205
1.82974
1.75221
1.69326
1.65136
1.62806
1.61957
1.6245
1.63978
1.66314
1.69312
1.72714
1.76515
1.80474
1.84647
1.88857
1.93119
1.97465
2.01568
2.06301
3.34258
3.30686
3.27009
3.23339
3.19434
3.1537
3.11044
3.06416
3.01517
2.96161
2.90563
2.84164
2.77832
2.70453
2.62516
2.53506
2.44519
2.34608
2.24492
2.14294
2.04266
1.95202
1.87049
1.80413
1.75265
1.71831
1.69895
1.69343
1.69941
1.71467
1.73774
1.76602
1.79923
1.83491
1.87338
1.91284
1.95328
1.99497
2.03446
2.08064
3.34134
3.30777
3.27331
3.23897
3.20253
3.16466
3.12449
3.08164
3.03646
2.98728
2.93607
2.87793
2.82049
2.75409
2.68302
2.60245
2.52206
2.433
2.34118
2.24742
2.15275
2.06479
1.98249
1.91198
1.85386
1.81075
1.78206
1.76692
1.76392
1.77101
1.78691
1.80907
1.83705
1.86839
1.90322
1.93968
1.97763
2.01726
2.05499
2.09975
3.3402
3.30865
3.27633
3.24419
3.21014
3.17482
3.13744
3.09765
3.05584
3.01048
2.96339
2.91024
2.8578
2.79761
2.73347
2.66095
2.58866
2.50841
2.42514
2.33941
2.25117
2.16745
2.08667
2.0147
1.95262
1.90311
1.86688
1.84338
1.8321
1.83132
1.84003
1.85588
1.87835
1.90504
1.93587
1.96902
2.00419
2.0415
2.07726
2.12034
3.33918
3.30951
3.2792
3.24912
3.2173
3.18432
3.1495
3.11249
3.07368
3.03171
2.98824
2.9394
2.89126
2.83637
2.77809
2.71241
2.64701
2.57441
2.4988
2.42055
2.33888
2.26018
2.18244
2.11102
2.0472
1.9935
1.95161
1.92121
1.90265
1.89459
1.89638
1.90596
1.92277
1.9446
1.9712
2.00078
2.0329
2.06764
2.10124
2.14239
3.33827
3.31039
3.28198
3.25383
3.22409
3.19329
3.16082
3.12635
3.09027
3.05134
3.01107
2.96603
2.92165
2.87133
2.81805
2.75823
2.69873
2.63275
2.56391
2.49243
2.41711
2.34368
2.26985
2.20035
2.13651
2.08051
2.03474
1.99897
1.9743
1.95977
1.95512
1.95866
1.96987
1.98677
2.00896
2.03478
2.06365
2.09561
2.12688
2.16585
3.33746
3.31128
3.28467
3.25835
3.23056
3.20181
3.17152
3.13938
3.10581
3.06962
3.03224
2.99055
2.94951
2.90317
2.85425
2.79947
2.74507
2.68483
2.62193
2.55651
2.48711
2.41888
2.34934
2.28264
2.22001
2.16324
2.11511
2.07545
2.0459
2.02586
2.01543
2.01333
2.01913
2.03114
2.04888
2.07083
2.0963
2.1253
2.15411
2.19069
3.33676
3.31219
3.28728
3.2627
3.23675
3.20991
3.18167
3.1517
3.12042
3.08674
3.05198
3.0133
2.97524
2.93243
2.88732
2.83694
2.78698
2.73174
2.67406
2.61403
2.55004
2.48675
2.42159
2.35815
2.29756
2.24116
2.19195
2.14971
2.11646
2.09191
2.07647
2.06927
2.06999
2.07728
2.09061
2.10866
2.13065
2.15657
2.18281
2.2168
3.33613
3.31311
3.28983
3.26689
3.24268
3.21765
3.19131
3.16336
3.1342
3.10283
3.07047
3.0345
2.99914
2.95948
2.91776
2.87124
2.82519
2.77434
2.72125
2.666
2.60691
2.54821
2.48732
2.42735
2.36929
2.31408
2.26478
2.22107
2.18521
2.15713
2.13748
2.12581
2.12189
2.12473
2.1338
2.14799
2.16647
2.18925
2.21286
2.24412
3.33558
3.31403
3.29228
3.27091
3.24835
3.22501
3.20047
3.1744
3.14723
3.11798
3.08783
3.05433
3.02143
2.9846
2.94591
2.90283
2.86025
2.81327
2.76426
2.71325
2.65858
2.6041
2.54726
2.49079
2.43552
2.38204
2.33339
2.2891
2.25157
2.22087
2.19782
2.18233
2.17427
2.17302
2.17805
2.1885
2.20353
2.22315
2.24409
2.2725
3.33507
3.31492
3.29464
3.27476
3.25374
3.23201
3.20915
3.18484
3.15952
3.13225
3.10415
3.07291
3.04227
3.008
2.97206
2.93205
2.89258
2.84905
2.80366
2.75645
2.70575
2.65513
2.60208
2.549
2.49661
2.44521
2.39772
2.35357
2.31513
2.28261
2.25693
2.23828
2.22663
2.2217
2.22299
2.22988
2.24155
2.25804
2.27634
2.30183
3.33458
3.31577
3.29689
3.2784
3.25885
3.23863
3.21735
3.1947
3.1711
3.14567
3.11947
3.09032
3.06175
3.02983
2.99639
2.95915
2.92248
2.88204
2.8399
2.7961
2.74898
2.70189
2.65235
2.6025
2.55299
2.50384
2.45787
2.41436
2.37566
2.34201
2.31438
2.2932
2.27851
2.27035
2.26823
2.2718
2.28027
2.29372
2.30943
2.33196
3.33411
3.31657
3.299
3.28184
3.26366
3.24486
3.22506
3.20396
3.18198
3.15826
3.13383
3.1066
3.07996
3.05019
3.01903
2.98431
2.95018
2.91255
2.87334
2.83262
2.78873
2.74485
2.69855
2.65176
2.60504
2.55821
2.51398
2.47149
2.43302
2.3988
2.36983
2.34672
2.32952
2.31857
2.31342
2.31395
2.31942
2.32995
2.34315
2.36275
3.33362
3.31728
3.30095
3.28503
3.26815
3.25068
3.23226
3.21262
3.19214
3.17002
3.14724
3.1218
3.09693
3.06915
3.0401
3.00768
2.97587
2.94078
2.90423
2.8663
2.82536
2.78441
2.74109
2.69717
2.65313
2.60863
2.56625
2.52504
2.48717
2.45285
2.42305
2.39852
2.37933
2.36604
2.35824
2.35603
2.35873
2.36651
2.37731
2.39403
3.3331
3.3179
3.30273
3.28797
3.2723
3.25606
3.23895
3.22065
3.20158
3.18095
3.1597
3.13593
3.11271
3.08676
3.05965
3.02935
2.99968
2.96691
2.93279
2.8974
2.85915
2.82089
2.78033
2.73908
2.69758
2.65538
2.6149
2.57513
2.53813
2.50408
2.47389
2.44839
2.42767
2.41247
2.40239
2.39776
2.39795
2.40317
2.41172
2.42565
3.33254
3.31839
3.30432
3.29063
3.27608
3.261
3.24509
3.22805
3.21029
3.19105
3.17123
3.149
3.12732
3.10308
3.07776
3.04942
3.0217
2.99107
2.95918
2.92613
2.89034
2.85454
2.81652
2.77777
2.73868
2.6987
2.66014
2.62192
2.58598
2.55248
2.52225
2.49618
2.47434
2.45761
2.44564
2.43891
2.43685
2.43972
2.44617
2.45744
3.33191
3.31876
3.30569
3.293
3.27949
3.26547
3.25067
3.23481
3.21826
3.20031
3.18182
3.16103
3.14077
3.11811
3.09446
3.06793
3.04203
3.01337
2.98353
2.95262
2.9191
2.88558
2.84992
2.81349
2.77668
2.73883
2.70217
2.66555
2.63081
2.59807
2.56809
2.54177
2.51918
2.50129
2.48777
2.47924
2.47521
2.47596
2.4805
2.48926
3.33122
3.31899
3.30685
3.29506
3.2825
3.26947
3.2557
3.24092
3.22549
3.20873
3.19147
3.17203
3.15309
3.1319
3.1098
3.08495
3.06072
3.03389
3.00595
2.97702
2.94561
2.91419
2.88072
2.84647
2.81179
2.77599
2.74118
2.70618
2.67274
2.64092
2.6114
2.58512
2.56209
2.54335
2.52861
2.51859
2.51285
2.51172
2.51451
2.52095
3.33045
3.31906
3.30777
3.29682
3.28513
3.27299
3.26016
3.24637
3.23199
3.21633
3.20021
3.18203
3.1643
3.14448
3.12381
3.10054
3.07785
3.05273
3.02655
2.99945
2.96999
2.94052
2.9091
2.87688
2.84421
2.81037
2.77735
2.74398
2.71188
2.68109
2.65223
2.62619
2.60299
2.5837
2.56803
2.5568
2.54962
2.54684
2.54807
2.55238
3.32959
3.31898
3.30847
3.29826
3.28736
3.27604
3.26407
3.25119
3.23775
3.22313
3.20805
3.19104
3.17444
3.15589
3.13654
3.11474
3.09349
3.06994
3.0454
3.02
2.99236
2.96471
2.93519
2.90489
2.87412
2.84215
2.81086
2.77909
2.74836
2.71869
2.69061
2.66501
2.64185
2.62226
2.60593
2.59374
2.58537
2.58117
2.58103
2.58342
3.32865
3.31875
3.30893
3.29939
3.28921
3.27862
3.26743
3.25539
3.24282
3.22914
3.21503
3.1991
3.18355
3.16617
3.14805
3.12762
3.1077
3.08563
3.06262
3.0388
3.01286
2.9869
2.95917
2.93066
2.90168
2.8715
2.84186
2.81167
2.78233
2.75382
2.72662
2.7016
2.67868
2.65899
2.64224
2.62933
2.61999
2.6146
2.61327
2.61396
3.32763
3.31836
3.30917
3.30023
3.29069
3.28077
3.27029
3.259
3.24723
3.23441
3.22119
3.20626
3.19166
3.17538
3.1584
3.13926
3.12057
3.09987
3.07828
3.05594
3.03159
3.00721
2.98115
2.95434
2.92705
2.89856
2.87052
2.84187
2.8139
2.78659
2.76036
2.73602
2.7135
2.69389
2.67691
2.6635
2.65342
2.64703
2.64469
2.64389
3.32653
3.31783
3.30921
3.3008
3.29183
3.28251
3.27266
3.26206
3.25101
3.23898
3.22657
3.21257
3.19886
3.18358
3.16765
3.14972
3.13218
3.11276
3.0925
3.07152
3.04868
3.02577
3.00129
2.97606
2.95037
2.9235
2.89699
2.86984
2.84323
2.81712
2.7919
2.76834
2.74633
2.72695
2.70994
2.69621
2.68557
2.6784
2.67521
2.67314
3.32536
3.31717
3.30905
3.30111
3.29266
3.28387
3.27459
3.26462
3.25421
3.24291
3.23124
3.2181
3.2052
3.19086
3.17591
3.15909
3.14261
3.12439
3.10537
3.08568
3.06424
3.04271
3.0197
2.99598
2.97178
2.94646
2.92142
2.89571
2.87043
2.84554
2.82137
2.79864
2.77725
2.75823
2.74132
2.72743
2.71642
2.70864
2.70476
2.70162
3.32412
3.31639
3.30872
3.3012
3.2932
3.28489
3.27612
3.26671
3.2569
3.24626
3.23526
3.22292
3.21077
3.19729
3.18324
3.16747
3.15197
3.13487
3.11701
3.09851
3.07838
3.05815
3.03653
3.01423
2.99145
2.9676
2.94395
2.91964
2.89566
2.87197
2.84886
2.82701
2.80632
2.78775
2.77107
2.75718
2.74595
2.73773
2.73328
2.72929
3.32282
3.3155
3.30823
3.30108
3.29349
3.2856
3.2773
3.26841
3.25913
3.24909
3.23871
3.22711
3.21564
3.20296
3.18974
3.17494
3.16036
3.1443
3.12752
3.11013
3.09125
3.07222
3.05191
3.03094
3.0095
2.98704
2.96473
2.94177
2.91905
2.89654
2.8745
2.85355
2.83361
2.81557
2.79924
2.78546
2.77414
2.76563
2.76076
2.75609
3.32147
3.31453
3.30761
3.30079
3.29357
3.28607
3.27818
3.26975
3.26097
3.25148
3.24167
3.23074
3.2199
3.20796
3.1955
3.18161
3.16787
3.15279
3.13702
3.12067
3.10294
3.08505
3.06597
3.04625
3.02608
3.00494
2.9839
2.96223
2.94073
2.91937
2.89839
2.87837
2.85922
2.84178
2.82587
2.81231
2.80102
2.79234
2.78716
2.78199
3.32009
3.31348
3.30688
3.30036
3.29348
3.28632
3.27881
3.27081
3.26247
3.25349
3.24419
3.23389
3.22362
3.21237
3.20062
3.18757
3.17462
3.16044
3.14561
3.13023
3.11358
3.09675
3.07883
3.06029
3.04131
3.02143
3.00159
2.98115
2.96083
2.94059
2.92067
2.90157
2.88324
2.86644
2.85102
2.83776
2.8266
2.81786
2.81248
2.80697
3.31868
3.31237
3.30607
3.29982
3.29324
3.2864
3.27924
3.27162
3.26369
3.25517
3.24635
3.23662
3.2269
3.21627
3.20518
3.19291
3.18069
3.16735
3.1534
3.13893
3.12329
3.10745
3.09061
3.07318
3.05532
3.03663
3.01794
2.99867
2.97947
2.96033
2.94143
2.92326
2.90575
2.88963
2.87476
2.86186
2.85091
2.84222
2.83672
2.83101
3.31725
3.31122
3.30518
3.29919
3.29289
3.28635
3.2795
3.27225
3.26469
3.2566
3.24822
3.23902
3.22979
3.21975
3.20926
3.19771
3.18617
3.17361
3.16048
3.14685
3.13216
3.11726
3.10142
3.08504
3.06824
3.05066
3.03306
3.0149
2.99678
2.97869
2.96079
2.94353
2.92685
2.91143
2.89714
2.88466
2.87399
2.86542
2.8599
2.8541
3.31581
3.31004
3.30426
3.2985
3.29245
3.28619
3.27964
3.27271
3.26551
3.25781
3.24984
3.24113
3.23237
3.22286
3.21294
3.20206
3.19115
3.17932
3.16695
3.1541
3.14029
3.12626
3.11137
3.09597
3.08017
3.06364
3.04706
3.02996
3.01287
2.99578
2.97886
2.96249
2.94664
2.93192
2.91824
2.90622
2.89589
2.88751
2.88203
2.87626
3.31437
3.30884
3.3033
3.29776
3.29196
3.28595
3.27969
3.27307
3.26618
3.25886
3.25127
3.24301
3.23468
3.22567
3.21628
3.20602
3.19569
3.18454
3.17288
3.16077
3.14778
3.13456
3.12056
3.10607
3.0912
3.07566
3.06005
3.04395
3.02785
3.01172
2.99573
2.98023
2.9652
2.95118
2.93813
2.9266
2.91664
2.90852
2.90313
2.89746
3.31294
3.30764
3.30232
3.29699
3.29143
3.28567
3.27966
3.27333
3.26676
3.25977
3.25254
3.2447
3.23677
3.22823
3.21933
3.20964
3.19987
3.18934
3.17834
3.16691
3.15469
3.14224
3.12906
3.11543
3.10143
3.08682
3.07212
3.05698
3.0418
3.0266
3.0115
2.99684
2.98261
2.9693
2.95687
2.94585
2.9363
2.92847
2.92323
2.91774
3.31152
3.30644
3.30134
3.29621
3.29087
3.28534
3.27959
3.27353
3.26724
3.26058
3.25368
3.24624
3.23869
3.23059
3.22214
3.21298
3.20372
3.19378
3.18339
3.17261
3.1611
3.14936
3.13695
3.12412
3.11095
3.09721
3.08336
3.06911
3.05482
3.04049
3.02626
3.01241
2.99895
2.98634
2.97454
2.96404
2.95492
2.94741
2.94235
2.9371
3.31012
3.30525
3.30036
3.29543
3.2903
3.285
3.27948
3.27369
3.26767
3.26132
3.25473
3.24765
3.24046
3.23277
3.22474
3.21608
3.20731
3.1979
3.18809
3.17791
3.16706
3.15598
3.1443
3.13222
3.11981
3.10689
3.09385
3.08044
3.06699
3.05349
3.04008
3.02701
3.0143
3.00237
2.99119
2.98122
2.97254
2.96538
2.96053
2.95555
3.30874
3.30408
3.29938
3.29465
3.28973
3.28464
3.27935
3.27381
3.26805
3.26198
3.2557
3.24896
3.24211
3.2348
3.22717
3.21897
3.21065
3.20176
3.19248
3.18285
3.17262
3.16217
3.15116
3.13978
3.12809
3.11593
3.10366
3.09104
3.07838
3.06567
3.05304
3.04072
3.02873
3.01745
3.00688
2.99744
2.98921
2.98241
2.9778
2.97312
3.30739
3.30293
3.29842
3.29388
3.28916
3.28428
3.27921
3.27391
3.2684
3.2626
3.2566
3.25019
3.24365
3.2367
3.22945
3.22168
3.21378
3.20536
3.19659
3.18748
3.17783
3.16796
3.15758
3.14685
3.13584
3.1244
3.11284
3.10097
3.08905
3.07709
3.0652
3.0536
3.0423
3.03166
3.02168
3.01276
3.00498
2.99855
2.99418
2.98982
3.30606
3.3018
3.29748
3.29312
3.2886
3.28392
3.27906
3.27399
3.26872
3.26318
3.25745
3.25134
3.24511
3.23849
3.2316
3.22423
3.21673
3.20876
3.20045
3.19184
3.18272
3.17339
3.1636
3.15349
3.14311
3.13234
3.12146
3.11029
3.09907
3.08781
3.07662
3.0657
3.05506
3.04504
3.03564
3.02722
3.01988
3.01382
3.00972
3.00568
3.30477
3.30069
3.29656
3.29238
3.28804
3.28356
3.27891
3.27405
3.26901
3.26373
3.25825
3.25243
3.24649
3.24019
3.23363
3.22664
3.21951
3.21196
3.20409
3.19593
3.18732
3.1785
3.16926
3.15973
3.14994
3.13979
3.12955
3.11903
3.10848
3.09789
3.08736
3.07709
3.06708
3.05764
3.0488
3.04087
3.03397
3.02828
3.02443
3.02072
3.30351
3.2996
3.29565
3.29165
3.2875
3.28321
3.27875
3.27411
3.26929
3.26424
3.25901
3.25346
3.24779
3.24179
3.23555
3.22892
3.22215
3.21498
3.20752
3.1998
3.19165
3.18332
3.1746
3.1656
3.15637
3.14681
3.13715
3.12726
3.11733
3.10737
3.09747
3.0878
3.0784
3.06952
3.06121
3.05376
3.04727
3.04195
3.03836
3.03496
3.30228
3.29855
3.29477
3.29094
3.28696
3.28286
3.2786
3.27415
3.26954
3.26472
3.25972
3.25444
3.24903
3.24332
3.23738
3.23107
3.22464
3.21784
3.21077
3.20345
3.19575
3.18786
3.17962
3.17113
3.16242
3.15342
3.14432
3.13501
3.12566
3.11629
3.10698
3.0979
3.08906
3.08072
3.07291
3.06592
3.05984
3.05486
3.05153
3.04844
3.30108
3.29752
3.29391
3.29024
3.28644
3.28251
3.27843
3.27419
3.26978
3.26517
3.2604
3.25537
3.25021
3.24477
3.23911
3.23312
3.227
3.22055
3.21385
3.20691
3.19962
3.19216
3.18437
3.17635
3.16814
3.15965
3.15107
3.14231
3.13351
3.12469
3.11595
3.10741
3.09911
3.09127
3.08395
3.07739
3.07171
3.06707
3.06398
3.06118
3.29992
3.29652
3.29307
3.28956
3.28593
3.28217
3.27827
3.27421
3.27
3.2656
3.26105
3.25625
3.25132
3.24614
3.24076
3.23507
3.22925
3.22312
3.21676
3.21018
3.20328
3.19622
3.18886
3.18129
3.17353
3.16552
3.15744
3.14919
3.1409
3.13262
3.12439
3.11637
3.10858
3.10123
3.09436
3.08822
3.0829
3.07858
3.07573
3.0732
3.29879
3.29555
3.29226
3.2889
3.28543
3.28184
3.27811
3.27423
3.27021
3.26601
3.26166
3.25708
3.25239
3.24745
3.24232
3.23691
3.23138
3.22556
3.21953
3.21329
3.20675
3.20006
3.19311
3.18595
3.17862
3.17107
3.16345
3.15568
3.14788
3.14009
3.13236
3.12482
3.1175
3.11061
3.10418
3.09843
3.09347
3.08945
3.08682
3.08454
3.29769
3.29461
3.29146
3.28826
3.28494
3.28151
3.27795
3.27424
3.2704
3.26639
3.26224
3.25788
3.2534
3.24869
3.24381
3.23867
3.2334
3.22788
3.22215
3.21623
3.21004
3.20371
3.19712
3.19036
3.18344
3.17632
3.16913
3.1618
3.15446
3.14713
3.13987
3.13278
3.12592
3.11945
3.11343
3.10805
3.10343
3.0997
3.09728
3.09523
3.29664
3.29369
3.29069
3.28763
3.28446
3.28118
3.27778
3.27424
3.27058
3.26675
3.26279
3.25863
3.25436
3.24987
3.24522
3.24033
3.23533
3.23008
3.22464
3.21902
3.21316
3.20715
3.20093
3.19453
3.18799
3.18127
3.17449
3.16759
3.16068
3.15378
3.14695
3.1403
3.13386
3.12779
3.12216
3.11713
3.11282
3.10936
3.10713
3.10529
3.29561
3.29281
3.28995
3.28703
3.284
3.28087
3.27762
3.27424
3.27074
3.26709
3.26331
3.25934
3.25526
3.251
3.24657
3.24192
3.23715
3.23216
3.227
3.22167
3.21611
3.21042
3.20453
3.19848
3.19229
3.18595
3.17955
3.17305
3.16654
3.16005
3.15363
3.14738
3.14134
3.13566
3.13038
3.12569
3.12167
3.11846
3.11641
3.11476
3.29463
3.29195
3.28922
3.28644
3.28355
3.28055
3.27745
3.27423
3.27089
3.2674
3.26379
3.26001
3.25613
3.25206
3.24784
3.24342
3.23888
3.23414
3.22924
3.22418
3.21891
3.21351
3.20793
3.20221
3.19637
3.19038
3.18434
3.17821
3.17207
3.16596
3.15993
3.15406
3.14839
3.14307
3.13813
3.13375
3.13
3.12703
3.12515
3.12367
3.29367
3.29113
3.28853
3.28586
3.2831
3.28025
3.27729
3.27421
3.27102
3.2677
3.26425
3.26065
3.25694
3.25307
3.24905
3.24484
3.24053
3.23602
3.23136
3.22656
3.22156
3.21644
3.21116
3.20574
3.20022
3.19456
3.18886
3.18308
3.1773
3.17155
3.16587
3.16036
3.15504
3.15005
3.14543
3.14134
3.13785
3.1351
3.13337
3.13205
3.29276
3.29033
3.28785
3.28531
3.28268
3.27995
3.27713
3.27419
3.27114
3.26797
3.26469
3.26125
3.25772
3.25402
3.2502
3.24619
3.24209
3.2378
3.23337
3.22881
3.22407
3.21922
3.21421
3.20909
3.20386
3.19851
3.19313
3.18768
3.18223
3.17682
3.17148
3.1663
3.16131
3.15663
3.15231
3.14849
3.14524
3.14269
3.14111
3.13993
3.29188
3.28956
3.2872
3.28478
3.28226
3.27966
3.27696
3.27416
3.27125
3.26823
3.26509
3.26182
3.25845
3.25493
3.25128
3.24747
3.24356
3.23949
3.23528
3.23094
3.22645
3.22185
3.2171
3.21225
3.2073
3.20225
3.19716
3.19202
3.18688
3.18178
3.17676
3.1719
3.16722
3.16283
3.15879
3.15522
3.1522
3.14984
3.14838
3.14733
3.29103
3.28883
3.28657
3.28426
3.28186
3.27938
3.2768
3.27413
3.27135
3.26846
3.26548
3.26235
3.25914
3.25578
3.25231
3.24868
3.24496
3.24109
3.23709
3.23297
3.2287
3.22433
3.21983
3.21524
3.21055
3.20578
3.20097
3.19612
3.19127
3.18647
3.18175
3.17717
3.17278
3.16867
3.16489
3.16155
3.15875
3.15656
3.15522
3.15429
3.29021
3.28812
3.28597
3.28376
3.28147
3.2791
3.27664
3.27409
3.27144
3.26869
3.26583
3.26286
3.25979
3.25659
3.25328
3.24983
3.24629
3.2426
3.2388
3.23488
3.23083
3.22668
3.22242
3.21806
3.21363
3.20911
3.20457
3.19998
3.19542
3.19089
3.18644
3.18214
3.17802
3.17416
3.17063
3.16752
3.1649
3.16288
3.16166
3.16083
3.28944
3.28744
3.28539
3.28328
3.2811
3.27883
3.27649
3.27405
3.27152
3.26889
3.26617
3.26333
3.26041
3.25736
3.2542
3.25091
3.24754
3.24403
3.24041
3.23669
3.23284
3.2289
3.22486
3.22073
3.21653
3.21225
3.20796
3.20363
3.19932
3.19505
3.19087
3.18682
3.18295
3.17934
3.17603
3.17312
3.17069
3.16882
3.1677
3.16698
3.28869
3.28679
3.28483
3.28282
3.28074
3.27858
3.27634
3.27401
3.27159
3.26908
3.26649
3.26378
3.26099
3.25808
3.25507
3.25194
3.24872
3.24538
3.24194
3.2384
3.23474
3.231
3.22716
3.22325
3.21927
3.21522
3.21116
3.20707
3.203
3.19898
3.19503
3.19123
3.18759
3.1842
3.18111
3.17839
3.17613
3.1744
3.17338
3.17275
3.28798
3.28616
3.2843
3.28238
3.28039
3.27833
3.27619
3.27396
3.27166
3.26926
3.26678
3.2642
3.26153
3.25876
3.25589
3.2529
3.24984
3.24666
3.24338
3.24001
3.23654
3.23298
3.22934
3.22562
3.22185
3.21802
3.21417
3.21031
3.20646
3.20267
3.19895
3.19537
3.19195
3.18878
3.18588
3.18335
3.18125
3.17965
3.17872
3.17818
3.2873
3.28557
3.28379
3.28196
3.28005
3.27808
3.27604
3.27392
3.27171
3.26943
3.26706
3.26459
3.26205
3.2594
3.25666
3.25382
3.25089
3.24786
3.24474
3.24154
3.23823
3.23485
3.23139
3.22786
3.22429
3.22066
3.21701
3.21336
3.20972
3.20614
3.20264
3.19927
3.19606
3.19307
3.19036
3.188
3.18605
3.18457
3.18373
3.18327
3.28665
3.285
3.2833
3.28155
3.27974
3.27785
3.2759
3.27387
3.27177
3.26958
3.26731
3.26496
3.26253
3.26
3.25739
3.25468
3.25189
3.249
3.24603
3.24297
3.23983
3.23661
3.23332
3.22998
3.22658
3.22314
3.21968
3.21622
3.21279
3.20941
3.20611
3.20293
3.19991
3.19711
3.19457
3.19236
3.19055
3.18919
3.18843
3.18805
3.28604
3.28446
3.28284
3.28117
3.27943
3.27763
3.27576
3.27382
3.27181
3.26972
3.26756
3.2653
3.26298
3.26057
3.25807
3.25548
3.25282
3.25007
3.24724
3.24433
3.24133
3.23827
3.23514
3.23196
3.22873
3.22547
3.2222
3.21892
3.21567
3.21247
3.20936
3.20636
3.20352
3.20089
3.19852
3.19646
3.19477
3.19352
3.19284
3.19254
3.28546
3.28395
3.2824
3.2808
3.27914
3.27742
3.27563
3.27377
3.27185
3.26985
3.26778
3.26563
3.26341
3.2611
3.25872
3.25624
3.2537
3.25108
3.24837
3.2456
3.24274
3.23983
3.23685
3.23383
3.23076
3.22766
3.22456
3.22145
3.21838
3.21535
3.21241
3.20959
3.20691
3.20444
3.20221
3.20029
3.19873
3.19758
3.19697
3.19674
3.28491
3.28347
3.28198
3.28045
3.27886
3.27721
3.2755
3.27373
3.27188
3.26997
3.26799
3.26593
3.26381
3.2616
3.25932
3.25696
3.25453
3.25202
3.24944
3.24679
3.24407
3.24129
3.23846
3.23558
3.23266
3.22972
3.22677
3.22382
3.22091
3.21805
3.21527
3.2126
3.21009
3.20776
3.20568
3.20388
3.20243
3.20138
3.20084
3.20068
3.28438
3.28301
3.28159
3.28012
3.2786
3.27702
3.27538
3.27368
3.27192
3.27008
3.26819
3.26621
3.26418
3.26207
3.25989
3.25763
3.2553
3.25291
3.25044
3.24791
3.24531
3.24267
3.23996
3.23722
3.23444
3.23164
3.22884
3.22604
3.22328
3.22057
3.21794
3.21543
3.21305
3.21087
3.20891
3.20724
3.20589
3.20493
3.20445
3.20435
3.28389
3.28258
3.28122
3.27981
3.27835
3.27684
3.27527
3.27363
3.27194
3.27019
3.26837
3.26648
3.26453
3.26251
3.26042
3.25825
3.25603
3.25373
3.25138
3.24896
3.24648
3.24395
3.24137
3.23875
3.23611
3.23344
3.23078
3.22812
3.2255
3.22293
3.22044
3.21806
3.21582
3.21377
3.21193
3.21037
3.20912
3.20824
3.20782
3.20778
3.28343
3.28217
3.28087
3.27952
3.27812
3.27666
3.27516
3.27359
3.27197
3.27028
3.26854
3.26672
3.26485
3.26291
3.26091
3.25884
3.25671
3.25451
3.25225
3.24994
3.24756
3.24515
3.24268
3.24019
3.23766
3.23512
3.23258
3.23006
3.22756
3.22513
3.22277
3.22052
3.2184
3.21647
3.21474
3.21328
3.21212
3.21132
3.21096
3.21096
3.283
3.28179
3.28054
3.27924
3.2779
3.2765
3.27505
3.27355
3.27199
3.27037
3.26869
3.26695
3.26516
3.26329
3.26137
3.25938
3.25734
3.25523
3.25307
3.25085
3.24858
3.24626
3.24391
3.24152
3.23911
3.23669
3.23427
3.23186
3.22949
3.22717
3.22493
3.2228
3.2208
3.21898
3.21736
3.21599
3.21492
3.21418
3.21387
3.21392
3.2826
3.28144
3.28023
3.27899
3.27769
3.27635
3.27496
3.27351
3.27201
3.27045
3.26884
3.26716
3.26544
3.26365
3.2618
3.25989
3.25792
3.2559
3.25382
3.2517
3.24952
3.2473
3.24505
3.24276
3.24046
3.23814
3.23583
3.23353
3.23127
3.22907
3.22694
3.22492
3.22303
3.22131
3.21978
3.2185
3.21751
3.21684
3.21657
3.21666
3.28222
3.28111
3.27995
3.27875
3.2775
3.27621
3.27487
3.27347
3.27203
3.27053
3.26897
3.26736
3.2657
3.26397
3.26219
3.26036
3.25847
3.25652
3.25453
3.25248
3.25039
3.24826
3.2461
3.24391
3.2417
3.23948
3.23727
3.23508
3.23293
3.23083
3.2288
3.22688
3.22509
3.22346
3.22203
3.22083
3.2199
3.21929
3.21907
3.21919
3.28188
3.2808
3.27968
3.27853
3.27732
3.27608
3.27478
3.27344
3.27204
3.27059
3.2691
3.26754
3.26594
3.26428
3.26256
3.26079
3.25897
3.2571
3.25517
3.25321
3.2512
3.24915
3.24707
3.24497
3.24285
3.24072
3.23861
3.23651
3.23445
3.23245
3.23052
3.22869
3.22699
3.22545
3.2241
3.22297
3.22211
3.22155
3.22137
3.22151
3.28156
3.28052
3.27944
3.27832
3.27716
3.27596
3.27471
3.27341
3.27206
3.27066
3.26921
3.26771
3.26616
3.26455
3.2629
3.26119
3.25943
3.25762
3.25577
3.25387
3.25194
3.24997
3.24796
3.24594
3.2439
3.24186
3.23983
3.23782
3.23585
3.23393
3.23209
3.23035
3.22874
3.22728
3.226
3.22494
3.22414
3.22364
3.22349
3.22365
3.28127
3.28026
3.27922
3.27814
3.27701
3.27585
3.27463
3.27338
3.27207
3.27072
3.26932
3.26786
3.26636
3.26481
3.26321
3.26155
3.25985
3.25811
3.25631
3.25448
3.25261
3.25071
3.24878
3.24683
3.24487
3.2429
3.24095
3.23902
3.23713
3.23529
3.23353
3.23187
3.23033
3.22894
3.22774
3.22675
3.226
3.22554
3.22542
3.2256
3.28101
3.28003
3.27902
3.27797
3.27688
3.27575
3.27457
3.27335
3.27208
3.27077
3.26941
3.268
3.26655
3.26504
3.26349
3.26188
3.26024
3.25854
3.25681
3.25504
3.25323
3.25139
3.24952
3.24764
3.24574
3.24385
3.24197
3.24011
3.23829
3.23652
3.23484
3.23325
3.23178
3.23046
3.22932
3.22839
3.2277
3.22728
3.22719
3.22737
3.28077
3.27982
3.27884
3.27782
3.27676
3.27566
3.27452
3.27333
3.2721
3.27082
3.2695
3.26813
3.26671
3.26525
3.26374
3.26218
3.26058
3.25894
3.25726
3.25554
3.25378
3.252
3.25019
3.24837
3.24653
3.2447
3.24288
3.24109
3.23933
3.23764
3.23601
3.23449
3.23309
3.23183
3.23075
3.22987
3.22923
3.22886
3.2288
3.22899
3.28056
3.27964
3.27868
3.27769
3.27665
3.27558
3.27447
3.27331
3.27211
3.27087
3.26958
3.26824
3.26686
3.26544
3.26397
3.26245
3.26089
3.2593
3.25766
3.25598
3.25428
3.25254
3.25079
3.24902
3.24724
3.24546