/*--------------------------------*- C++ -*----------------------------------*\
| =========                 |                                                 |
| \\      /  F ield         | OpenFOAM: The Open Source CFD Toolbox           |
|  \\    /   O peration     | Version:  5.x                                   |
|   \\  /    A nd           | Web:      www.OpenFOAM.org                      |
|    \\/     M anipulation  |                                                 |
\*---------------------------------------------------------------------------*/
FoamFile
{
    version     2.0;
    format      ascii;
    class       surfaceScalarField;
    location    "300";
    object      phi;
}
// * * * * * * * * * * * * * * * * * * * * * * * * * * * * * * * * * * * * * //

dimensions      [0 3 -1 0 0 0 0];

internalField   nonuniform List<scalar> 
51690
(
0.000836607
8.15645e-05
-0.000918216
0.000628985
0.000207618
0.000419569
0.000209399
0.000253713
0.000165837
0.000142941
0.000110758
7.3023e-05
6.99143e-05
3.41041e-05
3.89237e-05
1.13464e-05
2.2766e-05
1.00248e-06
1.03581e-05
-1.03863e-06
2.0541e-06
4.48341e-06
-5.50765e-06
1.79829e-05
-1.34882e-05
2.48908e-05
-6.89593e-06
3.92638e-05
-1.4362e-05
5.36367e-05
-1.4363e-05
6.54233e-05
-1.17783e-05
7.53913e-05
-9.9602e-06
8.49209e-05
-9.52181e-06
9.42318e-05
-9.30374e-06
0.000103059
-8.81817e-06
0.000112298
-9.23215e-06
0.000121082
-8.77459e-06
0.000130036
-8.9456e-06
0.000139001
-8.95584e-06
0.000147771
-8.76262e-06
0.000156897
-9.11781e-06
0.000165696
-8.79288e-06
0.000174524
-8.82174e-06
0.000183062
-8.53167e-06
0.000191419
-8.35267e-06
0.00019945
-8.02613e-06
0.000206682
-7.22883e-06
0.00021313
-6.44376e-06
0.000218379
-5.24685e-06
0.000222756
-4.37293e-06
0.000225816
-3.05877e-06
0.000227803
-1.9833e-06
0.00022807
-2.67955e-07
0.000224614
3.46045e-06
8.2995e-07
0.000223783
0.000695657
-2.95092e-07
-0.000613776
0.000739805
0.000163469
0.000707368
0.000241833
0.000611311
0.000261888
0.000491105
0.000230962
0.000377313
0.000183704
0.000288272
0.000127965
0.00022897
8.20691e-05
0.000193798
4.55337e-05
0.000175433
2.04215e-05
0.000166196
3.73305e-06
0.000163042
-1.03309e-05
0.000161503
-5.35382e-06
0.000163034
-1.58896e-05
0.000166767
-1.80916e-05
0.000172279
-1.72869e-05
0.000178123
-1.58016e-05
0.000184088
-1.54836e-05
0.000190135
-1.53476e-05
0.000196033
-1.47145e-05
0.000202641
-1.58371e-05
0.000209355
-1.54859e-05
0.000216454
-1.60423e-05
0.000223891
-1.63894e-05
0.000231374
-1.62435e-05
0.000239333
-1.70738e-05
0.000247171
-1.66287e-05
0.00025511
-1.67593e-05
0.000262858
-1.62773e-05
0.000270405
-1.58993e-05
0.000277791
-1.54103e-05
0.000284754
-1.41917e-05
0.00029144
-1.31279e-05
0.00029734
-1.11478e-05
0.000302611
-9.64265e-06
0.000306725
-7.17295e-06
0.00030976
-5.01687e-06
0.0003115
-2.00988e-06
0.0003101
4.86178e-06
-7.79515e-09
0.000310936
0.000593335
-5.88489e-05
-0.000534768
0.00065987
9.69378e-05
0.000707767
0.000193935
0.000711461
0.000258194
0.000666925
0.000275497
0.000587466
0.000263163
0.000493214
0.000222216
0.000405254
0.00017003
0.000334063
0.000116727
0.000284825
6.96617e-05
0.000252625
3.59359e-05
0.000235698
6.59897e-06
0.000224232
6.11426e-06
0.000218646
-1.03006e-05
0.000216656
-1.60997e-05
0.000219154
-1.97817e-05
0.000222935
-1.95799e-05
0.000228312
-2.08581e-05
0.000234584
-2.16168e-05
0.000241063
-2.1191e-05
0.000248796
-2.35671e-05
0.000256596
-2.32817e-05
0.000265013
-2.4456e-05
0.000273863
-2.52354e-05
0.000282709
-2.50854e-05
0.000292154
-2.65158e-05
0.0003013
-2.57714e-05
0.000310584
-2.60392e-05
0.000319613
-2.53031e-05
0.000328371
-2.46554e-05
0.00033691
-2.39459e-05
0.000344849
-2.21288e-05
0.000352456
-2.07331e-05
0.000359123
-1.78132e-05
0.000365124
-1.56407e-05
0.000369887
-1.19355e-05
0.000373612
-8.73963e-06
0.000375838
-4.23601e-06
0.000374856
5.84615e-06
-6.86614e-07
0.000375534
0.000538301
-0.000104097
-0.000493045
0.000589621
4.56197e-05
0.000644345
0.000139213
0.000689296
0.000213243
0.000706445
0.000258348
0.000687341
0.000282267
0.000634263
0.000275295
0.000561292
0.000243002
0.000482839
0.000195181
0.000414793
0.000137708
0.000361432
8.92994e-05
0.000327108
4.09246e-05
0.000301724
3.14998e-05
0.000286002
5.42406e-06
0.000276856
-6.95069e-06
0.000275211
-1.8133e-05
0.00027606
-2.04253e-05
0.000279909
-2.47035e-05
0.000285523
-2.72276e-05
0.000291853
-2.75177e-05
0.000299953
-3.16648e-05
0.00030819
-3.15154e-05
0.000317244
-3.35077e-05
0.000326835
-3.48242e-05
0.000336471
-3.47186e-05
0.000346887
-3.69294e-05
0.000357046
-3.59292e-05
0.000367492
-3.64835e-05
0.00037769
-3.54991e-05
0.00038755
-3.4515e-05
0.000397087
-3.34818e-05
0.00040584
-3.0881e-05
0.000414137
-2.90287e-05
0.000421271
-2.49467e-05
0.000427601
-2.19702e-05
0.000432487
-1.68212e-05
0.000436206
-1.24577e-05
0.000438212
-6.24296e-06
0.000436869
7.19056e-06
-9.05965e-07
0.000437088
0.000501642
-0.00014196
-0.000463775
0.000544751
2.51284e-06
0.000592278
9.16875e-05
0.000642088
0.000163435
0.000683946
0.000216491
0.000706468
0.000259746
0.000700488
0.000281275
0.000665843
0.000277647
0.000608846
0.000252177
0.000544324
0.000202231
0.000482309
0.000151315
0.000434479
8.87543e-05
0.000394832
7.11492e-05
0.000366523
3.37345e-05
0.000347651
1.19234e-05
0.000339779
-1.02569e-05
0.000335992
-1.66347e-05
0.000336752
-2.54603e-05
0.00034029
-3.07625e-05
0.000345186
-3.24107e-05
0.000352599
-3.9075e-05
0.000360459
-3.93726e-05
0.000369524
-4.257e-05
0.000379404
-4.47013e-05
0.000389491
-4.48025e-05
0.000400591
-4.80268e-05
0.000411478
-4.68139e-05
0.00042276
-4.77627e-05
0.000433849
-4.65854e-05
0.000444648
-4.5312e-05
0.000455174
-4.40055e-05
0.000464892
-4.05979e-05
0.00047413
-3.82643e-05
0.000482075
-3.28905e-05
0.000489084
-2.89773e-05
0.000494387
-2.2124e-05
0.000498258
-1.63269e-05
0.000500091
-8.07566e-06
0.000498211
9.07215e-06
-5.73858e-07
0.000497878
0.000477885
-0.00017508
-0.000444763
0.000515897
-3.54974e-05
0.00055735
5.02357e-05
0.000602582
0.000118204
0.000647991
0.000171082
0.000687492
0.000220246
0.000711867
0.000256901
0.000713607
0.000275906
0.000689975
0.000275809
0.000647278
0.000244928
0.00059388
0.000204713
0.000543867
0.000138768
0.000496118
0.000118898
0.00045686
7.29945e-05
0.000427441
4.13449e-05
0.000411705
5.48236e-06
0.000401744
-6.66912e-06
0.00039812
-2.18326e-05
0.000398544
-3.11829e-05
0.000401202
-3.5065e-05
0.000407317
-4.51861e-05
0.000414337
-4.63891e-05
0.00042299
-5.12205e-05
0.00043276
-5.44679e-05
0.000442922
-5.49619e-05
0.000454347
-5.94497e-05
0.00046566
-5.81246e-05
0.000477509
-5.96098e-05
0.000489247
-5.83225e-05
0.000500762
-5.68246e-05
0.000512058
-5.53009e-05
0.000522536
-5.10741e-05
0.000532551
-4.82782e-05
0.000541248
-4.15868e-05
0.000548994
-3.67219e-05
0.000554919
-2.80482e-05
0.000559245
-2.06523e-05
0.000561258
-1.00889e-05
0.000559152
1.11798e-05
1.45198e-07
0.000558433
0.000461943
-0.000205068
-0.000431954
0.000496394
-6.99466e-05
0.000533866
1.27641e-05
0.00057466
7.74112e-05
0.000617425
0.000128318
0.000660189
0.000177482
0.000697742
0.000219348
0.000722644
0.000251004
0.000728385
0.000270066
0.00071333
0.000259984
0.000680372
0.00023767
0.000640288
0.000178852
0.000594506
0.000164681
0.00055046
0.000117043
0.000513023
7.87847e-05
0.000489519
2.89898e-05
0.000472686
1.01677e-05
0.000463794
-1.29367e-05
0.0004603
-2.76853e-05
0.000460014
-3.4775e-05
0.000464175
-4.93443e-05
0.000469775
-5.19858e-05
0.000477515
-5.89576e-05
0.00048675
-6.37011e-05
0.00049665
-6.48589e-05
0.000508132
-7.09298e-05
0.00051967
-6.96599e-05
0.000531915
-7.18529e-05
0.000544164
-7.05695e-05
0.000556278
-6.8937e-05
0.000568243
-6.72642e-05
0.000579393
-6.22227e-05
0.000590093
-5.89765e-05
0.000599435
-5.09285e-05
0.000607814
-4.50994e-05
0.000614324
-3.45579e-05
0.000619164
-2.54909e-05
0.000621542
-1.24667e-05
0.000619517
1.32058e-05
9.87955e-07
0.000618674
0.000451099
-0.000232866
-0.0004233
0.000482903
-0.00010175
0.000517554
-2.18867e-05
0.000555216
3.97503e-05
0.000594979
8.85561e-05
0.000636462
0.000136
0.000677507
0.000178304
0.000713334
0.000215177
0.000738166
0.000245235
0.000746719
0.00025143
0.000737193
0.000247196
0.000714532
0.000201513
0.000680096
0.000199118
0.000639688
0.000157452
0.000599857
0.000118619
0.000570995
5.78542e-05
0.000547978
3.31888e-05
0.000533551
1.49429e-06
0.000525556
-1.96865e-05
0.000521717
-3.09328e-05
0.000523367
-5.09903e-05
0.000527084
-5.56992e-05
0.00053353
-6.54008e-05
0.000541909
-7.20775e-05
0.000551252
-7.41992e-05
0.000562501
-8.21759e-05
0.000573997
-8.1154e-05
0.00058641
-8.42634e-05
0.000598977
-8.31341e-05
0.000611533
-8.14918e-05
0.000624051
-7.97801e-05
0.000635808
-7.39781e-05
0.000647152
-7.03194e-05
0.000657116
-6.08911e-05
0.00066609
-5.40716e-05
0.000673135
-4.16025e-05
0.000678449
-3.0804e-05
0.000681214
-1.52306e-05
0.000679392
1.50291e-05
1.78479e-06
0.000678596
0.000444035
-0.000259107
-0.000417794
0.000473835
-0.000131549
0.000506288
-5.43389e-05
0.000541596
4.44285e-06
0.000578994
5.1158e-05
0.000618491
9.65035e-05
0.000659318
0.000137477
0.00069889
0.000175606
0.000733594
0.000210531
0.000758014
0.000227011
0.00076836
0.00023685
0.000764581
0.000205292
0.000746827
0.000216871
0.000717472
0.000186809
0.000682184
0.000153907
0.000652443
8.75989e-05
0.00062577
5.98643e-05
0.000606708
2.05601e-05
0.000594265
-7.24003e-06
0.00058659
-2.32552e-05
0.000585327
-4.97244e-05
0.000586775
-5.71441e-05
0.000591578
-7.02011e-05
0.000598795
-7.92926e-05
0.000607318
-8.27202e-05
0.0006181
-9.29555e-05
0.000629349
-9.24008e-05
0.000641737
-9.66496e-05
0.000654438
-9.58338e-05
0.000667262
-9.43145e-05
0.000680167
-9.26843e-05
0.000692387
-8.61971e-05
0.000704266
-8.21967e-05
0.000714785
-7.141e-05
0.000724315
-6.36001e-05
0.000731867
-4.91544e-05
0.000737621
-3.65569e-05
0.000740744
-1.83536e-05
0.00073914
1.66333e-05
2.48273e-06
0.000738442
0.000439962
-0.00028427
-0.000414798
0.000468282
-0.000159869
0.000499014
-8.50703e-05
0.000532427
-2.89699e-05
0.000567931
1.5654e-05
0.000605634
5.88015e-05
0.000645275
9.78359e-05
0.000685438
0.000135442
0.000724281
0.000171688
0.00075764
0.000193652
0.00078187
0.00021262
0.000794147
0.000193015
0.000793722
0.000217297
0.000779533
0.000200997
0.000754698
0.000178745
0.000729314
0.000112984
0.000703006
8.61733e-05
0.000681625
4.19431e-05
0.00066578
8.60811e-06
0.000654567
-1.20396e-05
0.00065028
-4.54349e-05
0.000649226
-5.6087e-05
0.000652122
-7.30949e-05
0.000657935
-8.5102e-05
0.000665425
-9.0208e-05
0.000675545
-0.000103073
0.000686369
-0.000103222
0.000698571
-0.000108849
0.00071126
-0.000108521
0.000724212
-0.000107265
0.000737368
-0.000105839
0.000749915
-9.87422e-05
0.000762191
-9.44706e-05
0.000773136
-8.23537e-05
0.000783115
-7.35773e-05
0.000791099
-5.71365e-05
0.000797233
-4.26902e-05
0.00080066
-2.17788e-05
0.000799237
1.80581e-05
3.10745e-06
0.000798613
0.000438326
-0.000308727
-0.000413868
0.000465603
-0.000187146
0.000495049
-0.000114516
0.000526957
-6.0878e-05
0.000560903
-1.82917e-05
0.000597065
2.26396e-05
0.0006354
5.95008e-05
0.000675041
9.5802e-05
0.000715167
0.000131562
0.000752891
0.000155928
0.000785561
0.00017995
0.000809481
0.000169096
0.000823804
0.000202972
0.00082526
0.000199543
0.000814168
0.000189837
0.000797547
0.000129604
0.000776048
0.000107673
0.000755729
6.22635e-05
0.000738616
2.57228e-05
0.000724996
1.58204e-06
0.000718081
-3.85175e-05
0.000714589
-5.25921e-05
0.000715476
-7.39798e-05
0.000719724
-8.93483e-05
0.000726021
-9.65029e-05
0.000735325
-0.000112375
0.000745583
-0.000113479
0.00075747
-0.000120734
0.000770026
-0.000121076
0.000782993
-0.000120232
0.000796291
-0.000119135
0.000809058
-0.000111508
0.000821623
-0.000107035
0.000832881
-9.36106e-05
0.000843189
-8.38855e-05
0.000851486
-6.5433e-05
0.000857899
-4.91031e-05
0.000861535
-2.54152e-05
0.000860209
1.93846e-05
3.73012e-06
0.000859586
0.000438728
-0.000332773
-0.000414682
0.000465319
-0.000213736
0.000493866
-0.000143063
0.000524648
-9.16602e-05
0.000557356
-5.09997e-05
0.000592225
-1.22289e-05
0.000629341
2.23846e-05
0.000668131
5.7012e-05
0.000708301
9.13917e-05
0.00074786
0.00011637
0.000785153
0.000142658
0.000816629
0.000137619
0.000841922
0.000177681
0.000856956
0.000184508
0.000860066
0.000186727
0.00085473
0.00013494
0.000841692
0.000120711
0.000826041
7.7915e-05
0.000810558
4.12068e-05
0.000796521
1.56205e-05
0.000788047
-3.00422e-05
0.000782642
-4.71855e-05
0.000781693
-7.30279e-05
0.000784378
-9.20315e-05
0.000789414
-0.000101537
0.000797804
-0.000120762
0.000807398
-0.000123071
0.000818869
-0.000132202
0.000831197
-0.000133402
0.000844091
-0.000133123
0.000857442
-0.000132485
0.000870343
-0.000124407
0.000883112
-0.000119802
0.000894593
-0.00010509
0.000905136
-9.44271e-05
0.00091364
-7.39351e-05
0.000920219
-5.5681e-05
0.000923951
-2.91454e-05
0.000922605
2.07324e-05
4.46442e-06
0.000921872
0.000440871
-0.000356645
-0.000416998
0.000467068
-0.000239934
0.000495049
-0.000171043
0.00052506
-0.000121671
0.00055686
-8.27996e-05
0.000590709
-4.60778e-05
0.000626777
-1.36834e-05
0.000664681
1.9108e-05
0.000704405
5.16677e-05
0.000744533
7.62419e-05
0.000784136
0.000103055
0.00082016
0.000101595
0.000852866
0.000144975
0.000878371
0.000159003
0.000894093
0.000171004
0.000900519
0.000128513
0.000898032
0.000123197
0.000889997
8.59506e-05
0.000879141
5.20638e-05
0.000867225
2.75377e-05
0.000858908
-2.17237e-05
0.000852679
-4.09549e-05
0.000850466
-7.08135e-05
0.000851851
-9.34143e-05
0.000855722
-0.000105407
0.000863196
-0.000128234
0.000872088
-0.000131962
0.000883087
-0.000143199
0.000895125
-0.000145438
0.000907879
-0.000145877
0.000921219
-0.000145824
0.000934188
-0.000137375
0.000947092
-0.000132705
0.000958725
-0.000116722
0.000969427
-0.000105129
0.000978053
-8.25612e-05
0.000984703
-6.23308e-05
0.000988422
-3.28646e-05
0.000986937
2.22178e-05
5.43332e-06
0.000985968
0.000444525
-0.000380541
-0.000420629
0.000470573
-0.000265982
0.000498269
-0.000198739
0.000527824
-0.000151227
0.000559036
-0.000114012
0.000592163
-7.92044e-05
0.000627416
-4.89363e-05
0.000664543
-1.80191e-05
0.000703683
1.25274e-05
0.0007438
3.6125e-05
0.000784432
6.24233e-05
0.000823055
6.29726e-05
0.000860449
0.000107581
0.000893372
0.000126078
0.000919166
0.000145209
0.000936298
0.00011138
0.000944782
0.000114713
0.00094609
8.4642e-05
0.000942292
5.58624e-05
0.000935054
3.47759e-05
0.000928992
-1.56603e-05
0.000923524
-3.54857e-05
0.000921073
-6.83615e-05
0.000921763
-9.41024e-05
0.000924807
-0.000108449
0.000931518
-0.000134944
0.000939777
-0.000140219
0.000950315
-0.000153735
0.000962047
-0.000157169
0.000974632
-0.00015846
0.000987921
-0.000159111
0.00100091
-0.000150366
0.0010139
-0.000145693
0.00102563
-0.000128452
0.00103644
-0.000115928
0.00104512
-9.12406e-05
0.00105176
-6.89717e-05
0.00105537
-3.64767e-05
0.00105364
2.39524e-05
6.75907e-06
0.00105232
0.000449512
-0.000404629
-0.000425423
0.000475616
-0.000292086
0.000503264
-0.000226387
0.000532637
-0.0001806
0.000563555
-0.000144929
0.000596256
-0.000111906
0.000630964
-8.3644e-05
0.000667511
-5.4566e-05
0.000706121
-2.60829e-05
0.000746019
-3.77309e-06
0.000787034
2.1409e-05
0.000827098
2.29081e-05
0.000867329
6.73497e-05
0.000905211
8.81966e-05
0.000938456
0.000111964
0.000964452
8.53832e-05
0.000983044
9.61202e-05
0.000994114
7.35715e-05
0.000998819
5.11573e-05
0.000998316
3.52789e-05
0.000996587
-1.39304e-05
0.00099373
-3.26276e-05
0.00099244
-6.70705e-05
0.000993398
-9.50594e-05
0.000996246
-0.000111296
0.00100256
-0.000141256
0.0010104
-0.000148062
0.00102059
-0.000163924
0.00103208
-0.000168651
0.00104452
-0.000170896
0.00105775
-0.000172346
0.00107075
-0.000163367
0.0010838
-0.000158741
0.0010956
-0.000140248
0.00110645
-0.000126784
0.00111514
-9.99249e-05
0.00112171
-7.55456e-05
0.00112515
-3.99101e-05
0.00112307
2.6023e-05
8.5435e-06
0.00112129
0.000455682
-0.000429055
-0.000431256
0.00048202
-0.000318424
0.000509826
-0.000254192
0.000539252
-0.000210026
0.000570135
-0.000175812
0.00060269
-0.000144461
0.000637132
-0.000118085
0.000673342
-9.07762e-05
0.000711585
-6.43258e-05
0.000751269
-4.34573e-05
0.000792398
-1.97204e-05
0.000833282
-1.79758e-05
0.000875208
2.54237e-05
0.000916296
4.7109e-05
0.000954773
7.34865e-05
0.000987635
5.25203e-05
0.00101478
6.89786e-05
0.00103499
5.33529e-05
0.00104859
3.75585e-05
0.00105606
2.78106e-05
0.00106034
-1.82115e-05
0.00106188
-3.41676e-05
0.00106333
-6.85153e-05
0.00106579
-9.75259e-05
0.00106936
-0.000114861
0.00107588
-0.000147774
0.00108372
-0.000155894
0.00109381
-0.000174017
0.0011052
-0.00018004
0.00111758
-0.000183277
0.00113082
-0.000185577
0.00114385
-0.000176401
0.00115697
-0.000171851
0.00116882
-0.000152098
0.00117971
-0.000137671
0.00118836
-0.000108577
0.00119482
-8.20028e-05
0.00119801
-4.31017e-05
0.00119553
2.85086e-05
1.08812e-05
0.00119319
0.000462912
-0.000453949
-0.000438018
0.00048964
-0.000345153
0.000517782
-0.000282333
0.000547467
-0.000239712
0.000578543
-0.000206888
0.000611203
-0.000177121
0.000645645
-0.000152526
0.000681777
-0.000126909
0.000719874
-0.000102422
0.000759471
-8.30546e-05
0.000800676
-6.09255e-05
0.000842098
-5.93977e-05
0.000885081
-1.75594e-05
0.000928242
3.94793e-06
0.0009703
3.14288e-05
0.00100826
1.45553e-05
0.00104222
3.5026e-05
0.00107037
2.51993e-05
0.00109241
1.55192e-05
0.00110821
1.20066e-05
0.00111954
-2.95431e-05
0.0011269
-4.15307e-05
0.00113258
-7.4191e-05
0.00113791
-0.000102851
0.00114331
-0.000120262
0.00115085
-0.000155316
0.00115928
-0.000164319
0.00116968
-0.000184423
0.00118126
-0.000191617
0.00119378
-0.000195793
0.00120713
-0.000198928
0.00122028
-0.000189549
0.0012335
-0.000185071
0.00124543
-0.000164028
0.00125635
-0.000148596
0.00126497
-0.000117189
0.00127128
-8.83195e-05
0.00127419
-4.60142e-05
0.00127124
3.14604e-05
1.38462e-05
0.00126828
0.00047109
-0.000479428
-0.000445611
0.00049835
-0.000372412
0.000526986
-0.00031097
0.000557112
-0.000269838
0.000588583
-0.000238359
0.000621572
-0.00021011
0.000656257
-0.000187212
0.000692565
-0.000163217
0.000730759
-0.000140616
0.000770463
-0.000122759
0.000811839
-0.000102302
0.000853732
-0.00010129
0.00089747
-6.1298e-05
0.000942043
-4.06243e-05
0.000986564
-1.30924e-05
0.00102827
-2.71463e-05
0.00106745
-4.16005e-06
0.00110214
-9.48607e-06
0.00113165
-1.39953e-05
0.00115545
-1.17936e-05
0.00117419
-4.82894e-05
0.00118827
-5.56066e-05
0.00119937
-8.52917e-05
0.00120882
-0.000112295
0.00121723
-0.000128672
0.00122675
-0.000164841
0.00123653
-0.000174098
0.00124781
-0.000195702
0.00125999
-0.000203789
0.00127293
-0.000208733
0.0012866
-0.000212599
0.00130001
-0.000202953
0.00131343
-0.000198492
0.0013255
-0.000176101
0.0013365
-0.000159591
0.00134509
-0.000125772
0.00135125
-9.44859e-05
0.00135386
-4.86201e-05
0.0013504
3.49213e-05
1.75066e-05
0.00134675
0.000480116
-0.000505603
-0.000453942
0.000508036
-0.000400332
0.000537312
-0.000340246
0.00056804
-0.000300567
0.000600086
-0.000270405
0.000633604
-0.000243628
0.000668755
-0.000222363
0.000705474
-0.000199936
0.000744008
-0.000179151
0.000784041
-0.000162792
0.000825759
-0.000144019
0.000868186
-0.000143717
0.000912598
-0.00010571
0.000958248
-8.62747e-05
0.00100455
-5.93942e-05
0.00104903
-7.16246e-05
0.00109219
-4.73237e-05
0.0011321
-4.93893e-05
0.00116793
-4.98359e-05
0.00119895
-4.28046e-05
0.00122491
-7.42553e-05
0.00124603
-7.6724e-05
0.00126332
-0.000102582
0.00127789
-0.000126864
0.00129039
-0.00014117
0.00130288
-0.000177336
0.00131488
-0.00018609
0.00132772
-0.000208538
0.00134102
-0.000217089
0.00135478
-0.000222498
0.00136907
-0.000226886
0.00138295
-0.000216834
0.00139673
-0.00021227
0.00140906
-0.00018843
0.0014202
-0.000170731
0.0014288
-0.000134377
0.00143484
-0.000100527
0.00143715
-5.09231e-05
0.00143317
3.89018e-05
2.19078e-05
0.00142876
0.000489894
-0.000532576
-0.00046292
0.000518593
-0.000429031
0.000548642
-0.000370294
0.000580123
-0.000332048
0.000612907
-0.000303188
0.000647134
-0.000277854
0.000682951
-0.00025818
0.000720296
-0.000237281
0.0007594
-0.000218254
0.000799987
-0.00020338
0.00084225
-0.000186282
0.000885351
-0.000186818
0.000930492
-0.00015085
0.00097711
-0.000132893
0.00102483
-0.000107114
0.00107148
-0.000118271
0.00111771
-9.35597e-05
0.00116176
-9.34333e-05
0.00120282
-9.08938e-05
0.00124007
-8.00613e-05
0.0012727
-0.00010688
0.00130072
-0.000104747
0.00132452
-0.000126378
0.00134487
-0.000147217
0.00136232
-0.000158618
0.00137869
-0.000193706
0.00139376
-0.00020116
0.0014089
-0.000223675
0.00142394
-0.000232132
0.00143902
-0.00023758
0.0014543
-0.000242164
0.00146895
-0.00023148
0.0014833
-0.000226619
0.00149605
-0.000201175
0.00150745
-0.00018213
0.00151616
-0.000143081
0.00152212
-0.000106487
0.00152414
-5.29428e-05
0.00151964
4.34007e-05
2.70874e-05
0.00151447
0.000500327
-0.000560447
-0.000472457
0.000529921
-0.000458625
0.000560868
-0.000401242
0.000593241
-0.000364421
0.000626914
-0.000336862
0.000662016
-0.000312956
0.00069868
-0.000294844
0.000736849
-0.000275451
0.000776735
-0.000258141
0.000818094
-0.000244739
0.000861114
-0.000229302
0.000905064
-0.000230768
0.000951063
-0.00019685
0.000998679
-0.000180509
0.00104768
-0.000156112
0.00109615
-0.000166745
0.00114487
-0.000142278
0.00119226
-0.000140819
0.00123761
-0.000136243
0.00128016
-0.000122612
0.00131871
-0.000145436
0.00135319
-0.000139226
0.00138344
-0.000156624
0.00140987
-0.000173654
0.00143285
-0.000181591
0.00145382
-0.000214679
0.00147275
-0.000220088
0.00149093
-0.000241852
0.00150837
-0.000249575
0.00152532
-0.000254533
0.00154204
-0.000258883
0.00155782
-0.000247255
0.00157302
-0.000241817
0.0015864
-0.000214557
0.00159822
-0.00019395
0.00160715
-0.000152008
0.00161311
-0.000112452
0.00161491
-5.47363e-05
0.00160993
4.83801e-05
3.30548e-05
0.00160396
0.000511321
-0.000589311
-0.000482457
0.000541918
-0.000489221
0.000573883
-0.000433207
0.000607278
-0.000397816
0.000641982
-0.000371565
0.000678112
-0.000349087
0.000715792
-0.000332524
0.000754968
-0.000314626
0.000795834
-0.000299007
0.000838169
-0.000287074
0.000882154
-0.000273287
0.000927139
-0.000275753
0.000974167
-0.000243878
0.00102289
-0.000229232
0.00107317
-0.00020639
0.00112332
-0.000216902
0.00117418
-0.000193138
0.00122438
-0.000191009
0.00127331
-0.000185177
0.00132034
-0.000169641
0.00136408
-0.000189182
0.00140442
-0.000179564
0.0014408
-0.000193001
0.00147332
-0.000206173
0.0015021
-0.000210373
0.00152818
-0.000240761
0.0015516
-0.000243504
0.00157348
-0.000263736
0.00159397
-0.000270059
0.00161337
-0.000273933
0.00163202
-0.000277533
0.00164934
-0.000264568
0.00166571
-0.000258193
0.00168
-0.000228839
0.00169244
-0.000206393
0.00170175
-0.000161313
0.00170783
-0.000118534
0.00170948
-5.63794e-05
0.00170407
5.37881e-05
3.98089e-05
0.00169732
0.000522775
-0.000619262
-0.000492824
0.000554481
-0.000520927
0.00058758
-0.000466306
0.000622122
-0.000432358
0.00065799
-0.000407433
0.000695295
-0.000386392
0.000734149
-0.000371378
0.0007745
-0.000354977
0.00081653
-0.000341037
0.000860034
-0.000330578
0.000905184
-0.000318437
0.000951392
-0.000321962
0.000999634
-0.00029212
0.00104962
-0.000279217
0.00110126
-0.000258035
0.00115308
-0.00026872
0.00120592
-0.000245979
0.0012586
-0.000243682
0.00131063
-0.000237211
0.0013615
-0.000220511
0.00140978
-0.000237465
0.00145536
-0.000225139
0.00149742
-0.00023506
0.0015358
-0.00024456
0.00157043
-0.000245001
0.0016019
-0.000272231
0.00163026
-0.000271857
0.00165639
-0.000289872
0.0016805
-0.000294163
0.0017029
-0.000296341
0.00172399
-0.000298621
0.00174329
-0.000283865
0.00176121
-0.000276116
0.00177671
-0.000244332
0.00179002
-0.000219707
0.0017999
-0.000171196
0.00180625
-0.000124884
0.00180786
-5.7987e-05
0.00180211
5.95327e-05
4.73172e-05
0.00179461
0.000534584
-0.000650394
-0.000503452
0.000567503
-0.000553847
0.000601847
-0.000500649
0.000637657
-0.000468169
0.00067482
-0.000444596
0.000713437
-0.000425009
0.000753615
-0.000411556
0.000795301
-0.000396664
0.000838668
-0.000384403
0.000883521
-0.000375432
0.000930026
-0.000364942
0.000977643
-0.000369578
0.00102729
-0.000341763
0.00107871
-0.000330636
0.00113185
-0.000311184
0.0011854
-0.000322262
0.00124019
-0.000300768
0.00129518
-0.000298675
0.00135001
-0.000292041
0.00140427
-0.000274775
0.00145657
-0.000289763
0.00150683
-0.000275392
0.00155408
-0.000282317
0.001598
-0.000288481
0.00163834
-0.000285334
0.00167528
-0.000309176
0.00170884
-0.000305411
0.00173963
-0.000320665
0.00176783
-0.000322366
0.00179375
-0.000322261
0.00181776
-0.000322633
0.00183949
-0.000305593
0.00185935
-0.000295976
0.00187639
-0.00026137
0.00189086
-0.000234166
0.00190154
-0.000181883
0.00190834
-0.000131679
0.00191005
-5.96934e-05
0.00190408
6.55077e-05
5.55351e-05
0.00189586
0.000546635
-0.000682798
-0.000514231
0.000580871
-0.000588082
0.000616569
-0.000536347
0.000653766
-0.000505367
0.000692348
-0.000483177
0.000732411
-0.000465073
0.000774056
-0.0004532
0.000817231
-0.000439839
0.000862098
-0.00042927
0.000908473
-0.000421807
0.000956513
-0.000412982
0.00100572
-0.000418782
0.00105695
-0.000392995
0.00110998
-0.000383671
0.0011648
-0.000366
0.00122018
-0.00037764
0.00127696
-0.000357553
0.00133423
-0.000355943
0.0013917
-0.000349508
0.00144906
-0.000332143
0.001505
-0.000345698
0.00155948
-0.00032987
0.00161149
-0.000334324
0.00166057
-0.000337566
0.00170636
-0.000331127
0.00174873
-0.000351537
0.00178759
-0.000344274
0.0018233
-0.000356374
0.00185597
-0.000355035
0.00188583
-0.000352119
0.00191321
-0.000350013
0.0019378
-0.000330185
0.00195999
-0.000318171
0.00197893
-0.00028031
0.00199484
-0.000250076
0.00200659
-0.000193631
0.00201404
-0.000139128
0.00201602
-6.16688e-05
0.00200995
7.15689e-05
6.43858e-05
0.0020011
0.000558811
-0.000716567
-0.000525042
0.000594463
-0.000623735
0.000631625
-0.000573509
0.000670325
-0.000544067
0.000710447
-0.0005233
0.000752087
-0.000506712
0.000795337
-0.00049645
0.000840147
-0.00048465
0.000886672
-0.000475794
0.000934734
-0.000469869
0.000984482
-0.000462731
0.00103544
-0.000469744
0.00108845
-0.000445997
0.00114328
-0.000438504
0.00119994
-0.000422657
0.00125729
-0.000434991
0.00131616
-0.00041643
0.00137574
-0.000415516
0.00143579
-0.00040956
0.00149611
-0.000392459
0.00155543
-0.00040502
0.00161379
-0.000388236
0.00167018
-0.000390713
0.00172408
-0.000391465
0.00177505
-0.000382097
0.00182268
-0.000399167
0.00186684
-0.000388435
0.0019076
-0.000397136
0.00194499
-0.000392422
0.00197913
-0.000386254
0.00201026
-0.000381143
0.00203811
-0.000358037
0.00206302
-0.00034308
0.00208422
-0.000301505
0.00210189
-0.000267746
0.00211497
-0.000206712
0.0021233
-0.000147458
0.00212573
-6.4097e-05
0.00211974
7.7562e-05
7.37815e-05
0.00211035
0.000570984
-0.000751793
-0.000535758
0.000608155
-0.000660906
0.000646887
-0.000612242
0.000687203
-0.000584383
0.000728987
-0.000565084
0.00077233
-0.000550055
0.00081732
-0.00054144
0.000863909
-0.000531238
0.000912242
-0.000524128
0.000962148
-0.000519776
0.00101377
-0.000514356
0.00106666
-0.000522632
0.00112161
-0.000500947
0.00117842
-0.000495316
0.0012371
-0.000481331
0.00129657
-0.00049447
0.00135768
-0.000477531
0.00141964
-0.000477478
0.00148229
-0.000472217
0.0015455
-0.000455661
0.00160807
-0.000467588
0.00167009
-0.000450264
0.00173058
-0.000451201
0.001789
-0.00044988
0.00184487
-0.000437969
0.00189758
-0.000451878
0.00194695
-0.000437806
0.0019928
-0.00044299
0.00203506
-0.000434682
0.00207372
-0.000424912
0.00210892
-0.000416338
0.00214038
-0.000389498
0.00216836
-0.00037106
0.00219216
-0.000325303
0.00221191
-0.000287497
0.00222661
-0.000221415
0.00223607
-0.000156916
0.00223916
-6.71897e-05
0.00223342
8.33005e-05
8.3603e-05
0.0022236
0.000583022
-0.000788568
-0.000546246
0.000621812
-0.000699695
0.000662221
-0.000652651
0.000704266
-0.000626428
0.00074783
-0.000608647
0.000793001
-0.000595226
0.000839863
-0.000588302
0.000888368
-0.000579744
0.000938658
-0.000574417
0.000990563
-0.000571681
0.00104422
-0.000568016
0.0010992
-0.000577608
0.00115627
-0.000558015
0.00121524
-0.000554283
0.00127611
-0.000542203
0.00133788
-0.00055624
0.00140135
-0.000541002
0.00146582
-0.000541944
0.00153115
-0.000537551
0.00159725
-0.000521762
0.00166301
-0.000533345
0.00172857
-0.000515823
0.00179296
-0.000515597
0.00185566
-0.000512584
0.0019162
-0.000498505
0.0019738
-0.000509482
0.00202826
-0.000492262
0.00207918
-0.000493912
0.00212639
-0.000481889
0.00216974
-0.000468262
0.00220924
-0.00045584
0.00224461
-0.000424862
0.00227598
-0.000402428
0.0023027
-0.000352025
0.00232484
-0.000309636
0.00234145
-0.000238023
0.00235229
-0.000167755
0.00235626
-7.11638e-05
0.00235097
8.8594e-05
9.37246e-05
0.00234085
0.000594786
-0.000826986
-0.000556368
0.000635295
-0.000740204
0.000677487
-0.000694843
0.000721373
-0.000670315
0.000766834
-0.000654108
0.000813955
-0.000642348
0.000862819
-0.000637166
0.000913377
-0.000630302
0.000965766
-0.000626806
0.00101982
-0.000625734
0.00107567
-0.000623869
0.0011329
-0.000634832
0.00119225
-0.000617372
0.00125355
-0.000615581
0.0013168
-0.000605451
0.00138102
-0.000620468
0.00144703
-0.000607005
0.00151413
-0.000609052
0.00158225
-0.000605667
0.00165131
-0.000590825
0.00172027
-0.000602298
0.0017893
-0.000584859
0.00185749
-0.000583789
0.00192433
-0.000579419
0.00198934
-0.00056352
0.00205167
-0.000571811
0.00211108
-0.00055167
0.00216701
-0.000549842
0.00221919
-0.000534066
0.00226734
-0.000516412
0.00231133
-0.000499834
0.00235084
-0.000464369
0.00238587
-0.000437465
0.00241582
-0.000381969
0.00244064
-0.00033446
0.00245944
-0.000256823
0.00247192
-0.000180236
0.00247701
-7.62536e-05
0.00247238
9.32291e-05
0.000103993
0.00246211
0.000606134
-0.00086714
-0.00056598
0.000648461
-0.000782531
0.000692541
-0.000738923
0.000738379
-0.000716153
0.000785853
-0.000701582
0.000835046
-0.000691542
0.00088604
-0.000688159
0.000938784
-0.000683046
0.000993413
-0.000681435
0.00104976
-0.000682081
0.00110796
-0.000682069
0.00116758
-0.000694458
0.00122939
-0.00067918
0.00129319
-0.000679379
0.00135899
-0.000671249
0.00142584
-0.000687323
0.00149454
-0.000675703
0.00156444
-0.000678953
0.00163547
-0.000676694
0.00170759
-0.000662946
0.0017798
-0.000674503
0.00185231
-0.000657377
0.00192426
-0.00065573
0.00199513
-0.000650295
0.0020645
-0.00063289
0.00213143
-0.000638737
0.00219567
-0.000615913
0.00225654
-0.000610709
0.00231368
-0.000591203