/*--------------------------------*- C++ -*----------------------------------*\
| =========                 |                                                 |
| \\      /  F ield         | OpenFOAM: The Open Source CFD Toolbox           |
|  \\    /   O peration     | Version:  5.x                                   |
|   \\  /    A nd           | Web:      www.OpenFOAM.org                      |
|    \\/     M anipulation  |                                                 |
\*---------------------------------------------------------------------------*/
FoamFile
{
    version     2.0;
    format      ascii;
    class       volVectorField;
    location    "300";
    object      U;
}
// * * * * * * * * * * * * * * * * * * * * * * * * * * * * * * * * * * * * * //

dimensions      [0 1 -1 0 0 0 0];

internalField   nonuniform List<vector> 
26000
(
(0.650587 1.57212e-19 2.6102)
(1.01268 -8.76553e-20 2.15893)
(1.16285 5.84624e-21 1.44568)
(1.15971 -3.92622e-20 0.837811)
(1.08498 -2.59684e-19 0.431644)
(1.00534 -1.07802e-19 0.183825)
(0.977351 0 0.0257811)
(0.968306 0 -0.0762626)
(0.967225 -1.6995e-19 -0.156374)
(0.969952 2.46955e-19 -0.208667)
(0.961839 5.22571e-20 -0.226853)
(0.960436 -2.65205e-19 -0.216257)
(0.927001 2.56003e-19 -0.207288)
(0.915966 6.9276e-19 -0.204501)
(0.920922 -6.62572e-19 -0.190242)
(0.923444 2.01131e-19 -0.179336)
(0.916254 1.07334e-18 -0.177747)
(0.911432 -2.1369e-18 -0.178626)
(0.906668 1.25572e-18 -0.18134)
(0.901162 1.29141e-18 -0.185469)
(0.895738 1.74876e-18 -0.189526)
(0.887764 8.78696e-19 -0.19382)
(0.87967 9.16083e-19 -0.198102)
(0.870876 -3.4787e-18 -0.202131)
(0.861043 8.88349e-19 -0.206153)
(0.851713 -2.59204e-18 -0.209732)
(0.841428 -1.70225e-18 -0.213028)
(0.83105 0 -0.216052)
(0.820113 -2.54355e-18 -0.218792)
(0.808468 8.27069e-19 -0.221116)
(0.7967 6.69587e-18 -0.222738)
(0.783741 0 -0.223789)
(0.769363 0 -0.22448)
(0.753001 -8.51106e-19 -0.224746)
(0.735474 6.78784e-18 -0.224492)
(0.716649 -6.04398e-18 -0.223624)
(0.69627 7.49509e-18 -0.221972)
(0.676277 6.75415e-18 -0.219796)
(0.646921 -2.18841e-19 -0.215157)
(0.626513 2.43873e-19 -0.21106)
(1.21137 -3.8253e-19 1.71245)
(1.53613 -1.31642e-19 1.92381)
(1.75857 0 1.90873)
(1.8901 1.52668e-20 1.67313)
(1.93237 5.78813e-20 1.32393)
(1.89382 0 0.959053)
(1.80955 5.85612e-20 0.651536)
(1.70438 -1.32542e-19 0.427648)
(1.60268 0 0.28088)
(1.52024 -5.11224e-20 0.188277)
(1.46203 -2.30697e-20 0.12592)
(1.42875 -2.22114e-20 0.0812121)
(1.39145 2.30256e-20 0.0476804)
(1.36501 4.60372e-20 0.0146582)
(1.34842 -1.98667e-20 -0.0119487)
(1.3345 2.32061e-19 -0.0341152)
(1.31792 -2.95492e-19 -0.0535181)
(1.29961 2.92938e-19 -0.0727697)
(1.28033 -4.46226e-19 -0.0912249)
(1.25822 -3.24689e-19 -0.108946)
(1.23665 -3.55589e-19 -0.125757)
(1.21467 0 -0.14085)
(1.19241 7.59484e-19 -0.155044)
(1.17074 8.00138e-19 -0.167967)
(1.14868 -3.9019e-19 -0.179787)
(1.12769 0 -0.190825)
(1.10655 1.28441e-20 -0.200645)
(1.08552 0 -0.20965)
(1.06437 4.49044e-19 -0.217689)
(1.04305 1.31118e-18 -0.224952)
(1.02202 -1.78594e-18 -0.231416)
(1.00079 -1.78867e-18 -0.236736)
(0.979908 0 -0.241163)
(0.958849 0 -0.244703)
(0.937856 -1.89345e-18 -0.24772)
(0.916504 3.82068e-18 -0.249992)
(0.894315 0 -0.251537)
(0.872312 -9.45266e-21 -0.25241)
(0.846273 -1.17954e-19 -0.252256)
(0.823899 1.33128e-19 -0.251694)
(1.06564 3.96291e-19 1.41319)
(1.31646 1.34568e-19 1.55921)
(1.5826 1.33741e-19 1.69567)
(1.83577 0 1.72532)
(2.03999 0 1.61581)
(2.16406 4.28651e-20 1.39003)
(2.20255 -3.52248e-21 1.10778)
(2.16407 2.89599e-21 0.822439)
(2.07617 3.75704e-20 0.579608)
(1.96939 5.66206e-20 0.395381)
(1.86735 -1.42024e-20 0.263948)
(1.78844 1.07794e-20 0.172578)
(1.71675 3.78568e-20 0.109819)
(1.6591 -1.29119e-19 0.0561389)
(1.61262 8.51246e-20 0.013828)
(1.57597 -1.37591e-20 -0.0203549)
(1.54377 -1.56365e-19 -0.0478446)
(1.51385 -4.68278e-22 -0.0731363)
(1.48608 1.33943e-19 -0.0958708)
(1.45802 3.23998e-19 -0.116922)
(1.43208 -2.21219e-19 -0.137024)
(1.40631 0 -0.154906)
(1.38046 -5.18463e-19 -0.171784)
(1.35531 8.27788e-19 -0.187051)
(1.32959 -5.45094e-19 -0.20084)
(1.30484 1.65504e-20 -0.213705)
(1.27963 -5.89261e-19 -0.224907)
(1.25428 1.20745e-18 -0.235177)
(1.22886 6.1057e-19 -0.244194)
(1.20326 -6.46448e-19 -0.252224)
(1.17804 0 -0.259375)
(1.15266 1.29509e-18 -0.265393)
(1.12775 -3.3338e-19 -0.270662)
(1.10276 3.25045e-19 -0.274944)
(1.07798 1.33845e-18 -0.278667)
(1.0531 -2.6957e-18 -0.281552)
(1.02795 2.74637e-18 -0.283794)
(1.00357 -2.79193e-18 -0.28551)
(0.974641 2.70878e-18 -0.285523)
(0.950871 0 -0.286647)
(1.09353 -3.23668e-19 1.23738)
(1.22641 2.36457e-20 1.33216)
(1.39539 -2.30523e-19 1.4407)
(1.60546 8.26339e-20 1.53464)
(1.83604 -8.26545e-20 1.56778)
(2.051 -1.03704e-20 1.50526)
(2.21688 -4.4715e-21 1.34919)
(2.30861 -2.24017e-21 1.12353)
(2.32325 8.34109e-22 0.875337)
(2.27633 -2.96918e-20 0.644551)
(2.19259 1.96616e-20 0.454157)
(2.10343 -7.38088e-21 0.312016)
(2.00916 1.3754e-20 0.208294)
(1.92291 -1.46769e-20 0.127469)
(1.84818 -6.50687e-20 0.0661852)
(1.7901 7.96791e-20 0.0192733)
(1.74234 1.09923e-19 -0.0175086)
(1.70116 -1.24332e-19 -0.0498831)
(1.66536 4.43157e-20 -0.0780564)
(1.6314 -1.23509e-19 -0.103731)
(1.60067 -1.9126e-19 -0.127583)
(1.57072 3.48586e-19 -0.148929)
(1.54103 -2.03529e-19 -0.168975)
(1.51222 1.89775e-19 -0.187131)
(1.48299 0 -0.203658)
(1.4548 4.43964e-19 -0.218883)
(1.42652 -4.49072e-19 -0.232373)
(1.39849 7.09385e-21 -0.24473)
(1.37064 -9.50046e-19 -0.255706)
(1.34251 -1.00861e-20 -0.265558)
(1.3145 4.90037e-19 -0.2743)
(1.28602 2.5628e-19 -0.281766)
(1.2578 -2.53778e-19 -0.288262)
(1.22929 -2.62823e-19 -0.293636)
(1.20087 -5.29291e-19 -0.298252)
(1.1723 -2.6459e-18 -0.30192)
(1.14355 -1.88692e-18 -0.304866)
(1.11568 -2.30347e-18 -0.307243)
(1.08326 2.20766e-18 -0.30802)
(1.05692 2.35358e-18 -0.309829)
(1.1276 -4.50271e-21 1.10673)
(1.21845 1.31474e-20 1.17867)
(1.32216 7.73151e-20 1.25838)
(1.45713 -1.49838e-19 1.34296)
(1.63009 4.58364e-20 1.41437)
(1.83031 0 1.44144)
(2.03408 -1.90082e-20 1.40006)
(2.20831 1.21174e-20 1.27915)
(2.32598 1.65123e-20 1.09628)
(2.37548 8.53419e-21 0.883069)
(2.36282 0 0.672661)
(2.31205 0 0.494309)
(2.23311 -1.5006e-22 0.348715)
(2.14442 1.61284e-20 0.232782)
(2.05715 3.4511e-20 0.144009)
(1.98429 1.70506e-20 0.0781522)
(1.92278 -4.658e-20 0.0280849)
(1.86991 -1.21125e-19 -0.0140801)
(1.8245 8.46413e-20 -0.0496115)
(1.78229 2.23135e-19 -0.0812052)
(1.74458 -2.49817e-19 -0.109616)
(1.70885 2.21191e-19 -0.134831)
(1.67444 -3.66333e-19 -0.158284)
(1.64173 0 -0.179412)
(1.60911 0 -0.198671)
(1.5779 -3.60885e-19 -0.21623)
(1.54692 3.46425e-19 -0.231898)
(1.51639 -7.02669e-21 -0.246283)
(1.48626 -3.83325e-19 -0.259136)
(1.45602 -7.85393e-19 -0.270735)
(1.42611 0 -0.281088)
(1.39592 0 -0.29013)
(1.36606 2.11977e-19 -0.298065)
(1.33587 -2.07631e-19 -0.304797)
(1.3057 0 -0.310641)
(1.2752 1.95887e-18 -0.315478)
(1.24419 -2.18235e-19 -0.31949)
(1.21376 4.52401e-22 -0.322769)
(1.17845 1.7568e-18 -0.324494)
(1.14947 -1.98491e-18 -0.326976)
(1.15548 -8.35495e-21 1.00926)
(1.22393 1.75346e-20 1.06718)
(1.29775 -1.09711e-20 1.12966)
(1.38792 -7.74466e-21 1.19635)
(1.5048 7.5888e-20 1.26348)
(1.65323 -2.95647e-20 1.31718)
(1.82932 3.28185e-20 1.33742)
(2.01467 -5.7062e-20 1.30162)
(2.18232 -4.47601e-20 1.20241)
(2.30629 0 1.04901)
(2.37268 0 0.864116)
(2.3861 -9.83428e-21 0.682281)
(2.35436 -1.74034e-21 0.512753)
(2.29294 1.99859e-20 0.366515)
(2.21537 -2.82842e-20 0.247548)
(2.14041 2.61193e-20 0.157975)
(2.07182 -5.9918e-20 0.0903611)
(2.01052 1.63006e-19 0.0354354)
(1.95714 -1.63026e-19 -0.00946355)
(1.90803 -1.69945e-20 -0.0484264)
(1.86452 0 -0.0824438)
(1.82408 2.88485e-19 -0.112231)
(1.78569 -3.92684e-19 -0.139573)
(1.74959 -1.64887e-20 -0.164059)
(1.71403 5.42204e-19 -0.186378)
(1.68016 -2.79513e-19 -0.206595)
(1.64686 0 -0.224708)
(1.61418 6.26188e-19 -0.24129)
(1.58211 3.32243e-19 -0.256128)
(1.55009 3.39709e-19 -0.269549)
(1.51857 -3.28824e-19 -0.281562)
(1.48693 0 -0.292214)
(1.4557 0 -0.301651)
(1.42431 0 -0.309837)
(1.39309 0 -0.317025)
(1.36164 -1.45807e-18 -0.323148)
(1.32964 -1.48905e-18 -0.328379)
(1.29806 1.41146e-18 -0.332785)
(1.26131 -2.74799e-18 -0.335795)
(1.23064 -5.03501e-20 -0.339122)
(1.18108 9.08278e-20 0.932902)
(1.23448 -9.16962e-20 0.979977)
(1.2905 -6.53802e-20 1.0313)
(1.35627 6.54599e-20 1.08551)
(1.43833 -6.12796e-20 1.14155)
(1.54293 6.5069e-20 1.19493)
(1.67521 0 1.23594)
(1.83177 1.02972e-19 1.24713)
(1.99844 3.44351e-20 1.21315)
(2.15247 0 1.12652)
(2.27199 0 0.992948)
(2.34481 8.72e-21 0.837939)
(2.37057 3.07727e-20 0.671383)
(2.3554 1.9745e-20 0.511693)
(2.30797 -5.92189e-20 0.369423)
(2.247 3.99514e-20 0.256623)
(2.18232 0 0.169012)
(2.11962 -2.57688e-20 0.0986086)
(2.06257 1.59634e-20 0.0421652)
(2.00939 -1.43236e-19 -0.00577767)
(1.96191 1.56938e-19 -0.0466447)
(1.91795 0 -0.0819864)
(1.87635 -2.47839e-20 -0.113924)
(1.83742 2.18021e-19 -0.142249)
(1.79944 -2.15781e-19 -0.167965)
(1.76345 0 -0.191069)
(1.7284 0 -0.211767)
(1.69417 2.63031e-19 -0.230674)
(1.66074 -2.65846e-19 -0.247637)
(1.62756 2.68251e-19 -0.26303)
(1.59502 -2.82309e-19 -0.276848)
(1.56244 -5.7568e-19 -0.289219)
(1.5303 -3.01133e-19 -0.300235)
(1.4981 2.95574e-19 -0.309934)
(1.46611 0 -0.318536)
(1.43405 1.24679e-18 -0.326023)
(1.40156 1.27526e-18 -0.332556)
(1.36952 1.37644e-18 -0.338181)
(1.33239 -1.31971e-18 -0.342609)
(1.30102 -1.40788e-18 -0.346925)
(1.2041 7.42879e-20 0.87075)
(1.24765 1.20676e-20 0.909261)
(1.29176 5.53437e-20 0.951818)
(1.34216 0 0.997198)
(1.40324 -3.18437e-20 1.04432)
(1.47916 -8.30035e-20 1.09134)
(1.57568 0 1.13457)
(1.6958 -1.03025e-19 1.16434)
(1.8363 -5.28703e-20 1.16815)
(1.98481 3.66651e-20 1.13324)
(2.12305 -7.07723e-20 1.05355)
(2.2324 7.10666e-20 0.940805)
(2.30583 4.08948e-21 0.799732)
(2.33985 -3.5558e-20 0.647501)
(2.33406 1.66697e-20 0.496616)
(2.30055 2.75647e-20 0.367503)
(2.2515 -5.8984e-20 0.261346)
(2.19606 -6.97013e-20 0.174419)
(2.14105 -1.45163e-20 0.104647)
(2.08745 2.04013e-19 0.0460924)
(2.03836 1.34758e-20 -0.00286699)
(1.99253 -2.95338e-19 -0.0446975)
(1.94905 1.66104e-19 -0.0819129)
(1.90831 0 -0.114593)
(1.86873 2.31298e-20 -0.144108)
(1.83125 -2.03747e-19 -0.170452)
(1.7949 2.00798e-19 -0.194036)
(1.75951 0 -0.215491)
(1.72509 -1.12754e-19 -0.234736)
(1.6911 2.36384e-19 -0.252212)
(1.65788 4.96224e-21 -0.267922)
(1.62479 2.41726e-19 -0.282077)
(1.59223 4.99046e-19 -0.294754)
(1.55966 2.53825e-19 -0.306048)
(1.52733 -8.0067e-19 -0.316134)
(1.49497 8.04721e-19 -0.325036)
(1.46225 0 -0.332928)
(1.43005 -1.19463e-18 -0.339832)
(1.39303 1.1149e-18 -0.345722)
(1.36149 1.26563e-18 -0.351105)
(1.22442 -1.29763e-19 0.818932)
(1.26133 3.84102e-20 0.850764)
(1.29749 1.44881e-20 0.886074)
(1.33756 5.4566e-20 0.924223)
(1.38497 2.57474e-20 0.964306)
(1.44253 1.03541e-19 1.00507)
(1.51452 -1.02312e-19 1.04498)
(1.6048 7.23259e-20 1.07917)
(1.71505 4.32519e-20 1.10013)
(1.84134 -4.91113e-20 1.09688)
(1.97307 3.58898e-20 1.05954)
(2.09383 -1.02856e-19 0.989177)
(2.19491 9.73491e-20 0.884533)
(2.26755 -2.95623e-20 0.756294)
(2.30317 4.55372e-20 0.613566)
(2.30379 -5.87754e-20 0.479885)
(2.27939 0 0.361366)
(2.23969 7.60792e-20 0.260036)
(2.19321 -7.96176e-20 0.176706)
(2.14379 1.27449e-19 0.106509)
(2.09614 -2.2508e-19 0.0483652)
(2.05053 -4.17967e-20 -0.000893993)
(2.00668 1.56747e-19 -0.0441264)
(1.96526 1.84877e-20 -0.0817531)
(1.92496 -1.84305e-20 -0.115526)
(1.88668 1.0526e-20 -0.145467)
(1.84958 -1.79811e-19 -0.172214)
(1.81348 1.80201e-19 -0.196445)
(1.77843 9.97852e-20 -0.218169)
(1.74389 -1.94343e-19 -0.237895)
(1.71021 4.15559e-19 -0.255631)
(1.67678 -4.18094e-19 -0.271667)
(1.64397 -6.59149e-19 -0.286072)
(1.61127 4.38671e-19 -0.299)
(1.57886 2.26296e-19 -0.310615)
(1.54648 4.90681e-22 -0.320981)
(1.51378 -9.64626e-19 -0.33027)
(1.48162 9.84159e-19 -0.338491)
(1.44492 1.90349e-18 -0.345849)
(1.41347 2.12743e-21 -0.352356)
(1.24237 -1.56444e-22 0.77499)
(1.27453 0 0.801604)
(1.30528 0 0.831034)
(1.33833 -4.78603e-20 0.863033)
(1.37641 0 0.897082)
(1.42165 -2.28681e-20 0.932292)
(1.4772 6.80104e-20 0.967834)
(1.54613 0 1.00105)
(1.6312 -4.73526e-20 1.02784)
(1.73266 8.20905e-20 1.04072)
(1.84617 -8.41991e-20 1.03088)
(1.96079 4.41083e-20 0.994091)
(2.06982 -2.9677e-20 0.925551)
(2.16443 0 0.828997)
(2.23194 0 0.707432)
(2.26529 2.42538e-20 0.581778)
(2.26943 -5.8185e-20 0.460405)
(2.2516 6.34196e-20 0.350207)
(2.21974 -7.8279e-20 0.255579)
(2.17946 8.02919e-20 0.174071)
(2.13683 -1.00881e-19 0.106242)
(2.09388 2.38302e-19 0.0488242)
(2.05141 -1.41549e-19 -0.00110236)
(2.01061 1.5959e-20 -0.0442411)
(1.97055 -1.05254e-21 -0.0827153)
(1.93223 -1.57838e-19 -0.116616)
(1.89499 3.02201e-19 -0.146834)
(1.85865 7.55416e-21 -0.174097)
(1.82334 7.29114e-21 -0.198506)
(1.78857 9.31438e-20 -0.220647)
(1.75465 -5.32516e-19 -0.240553)
(1.72105 -3.23163e-21 -0.258587)
(1.68808 3.79922e-19 -0.274817)
(1.65531 -3.81657e-19 -0.289453)
(1.62288 4.0713e-19 -0.302649)
(1.59057 6.43848e-21 -0.314506)
(1.558 6.35683e-19 -0.325213)
(1.52598 -7.54144e-19 -0.33478)
(1.48969 -1.72624e-18 -0.343593)
(1.45843 -5.89956e-20 -0.351269)
(1.25835 6.16638e-20 0.737216)
(1.28694 8.04574e-20 0.759707)
(1.31386 -8.01105e-20 0.784429)
(1.34205 -8.77144e-20 0.811299)
(1.37367 0 0.840099)
(1.41038 -4.13577e-20 0.870291)
(1.45459 2.0776e-21 0.901443)
(1.50864 0 0.931891)
(1.575 8.7591e-20 0.959352)
(1.65526 -4.4065e-20 0.979053)
(1.74853 4.90386e-20 0.984669)
(1.84877 4.41702e-20 0.970598)
(1.95234 0 0.931259)
(2.05328 0 0.865803)
(2.13925 0 0.77164)
(2.1978 3.49505e-20 0.66359)
(2.22866 0 0.54928)
(2.23495 3.44175e-20 0.437955)
(2.22192 -1.07471e-19 0.336778)
(2.19524 -4.43525e-20 0.246243)
(2.16134 1.70637e-19 0.169366)
(2.12382 -4.21988e-20 0.103625)
(2.08473 1.59023e-19 0.0465855)
(2.04598 -5.23957e-19 -0.00252581)
(2.00724 2.56923e-19 -0.0461116)
(1.9697 3.17109e-20 -0.0843242)
(1.93294 0 -0.118306)
(1.89687 -8.73247e-21 -0.148847)
(1.86171 3.32618e-19 -0.176153)
(1.827 -3.70152e-19 -0.20089)
(1.79309 2.37538e-19 -0.223115)
(1.75948 -1.57845e-19 -0.243269)
(1.7265 1.67209e-19 -0.261427)
(1.69373 3.41572e-19 -0.277853)
(1.66131 3.53739e-19 -0.292699)
(1.62906 -3.60246e-19 -0.306099)
(1.59662 9.43043e-20 -0.318256)
(1.56474 -9.4193e-20 -0.329189)
(1.52884 1.48881e-18 -0.339443)
(1.49777 8.4817e-19 -0.348323)
(1.27266 4.96491e-20 0.704372)
(1.29849 -1.67828e-19 0.723566)
(1.32256 1.5546e-19 0.744515)
(1.3473 1.39042e-19 0.767192)
(1.37439 3.8996e-20 0.79153)
(1.40511 -1.97255e-20 0.817249)
(1.44134 -7.85955e-20 0.844208)
(1.48489 0 0.871327)
(1.53775 -1.57137e-19 0.89726)
(1.60165 3.84219e-20 0.918918)
(1.67715 4.93027e-20 0.932143)
(1.76134 8.5079e-20 0.931745)
(1.853 7.15885e-20 0.912991)
(1.94955 -7.89633e-20 0.873134)
(2.0415 0 0.806254)
(2.11517 -9.20186e-20 0.720474)
(2.16667 1.27085e-19 0.620809)
(2.19522 -9.50455e-20 0.516155)
(2.20233 2.62118e-20 0.414665)
(2.19219 -3.62252e-20 0.319245)
(2.17027 1.59183e-19 0.235436)
(2.14101 -3.73446e-19 0.162168)
(2.1075 2.20226e-19 0.0981235)
(2.07239 4.83867e-20 0.0428378)
(2.03615 -2.57336e-20 -0.00614902)
(2.00028 -2.77427e-20 -0.0489584)
(1.96466 0 -0.0869647)
(1.9294 2.74673e-19 -0.121016)
(1.89479 -2.82677e-19 -0.151421)
(1.86048 0 -0.178924)
(1.82683 6.91806e-20 -0.20362)
(1.79342 0 -0.226021)
(1.76057 2.59355e-21 -0.246214)
(1.7279 -1.4772e-19 -0.264519)
(1.69556 -4.71944e-19 -0.281088)
(1.66338 1.5779e-19 -0.296093)
(1.63103 -7.46783e-19 -0.309745)
(1.59925 -5.96533e-19 -0.32208)
(1.56367 -2.60838e-18 -0.333773)
(1.53274 -1.55552e-18 -0.343885)
(1.28558 -9.03484e-20 0.675523)
(1.30921 -1.02954e-20 0.692054)
(1.3311 -6.62304e-20 0.709963)
(1.35329 -7.24624e-20 0.729236)
(1.37713 -1.76449e-20 0.749867)
(1.40359 1.24866e-19 0.771718)
(1.43413 1.06569e-19 0.79484)
(1.47017 0 0.818545)
(1.51327 -2.83895e-21 0.842039)
(1.56499 -7.65677e-20 0.863247)
(1.6263 -6.73027e-20 0.879505)
(1.696 -6.69482e-20 0.886524)
(1.77424 7.89862e-20 0.880877)
(1.86092 7.80244e-20 0.859667)
(1.95003 -7.51442e-20 0.81596)
(2.0294 0 0.752524)
(2.09369 0 0.67139)
(2.13958 -1.26146e-19 0.579339)
(2.16515 2.55586e-19 0.483694)
(2.17229 -6.47862e-20 0.388544)
(2.16444 -2.2345e-19 0.30125)
(2.14583 7.12259e-20 0.222399)
(2.12006 0 0.152246)
(2.09034 -2.6918e-19 0.091052)
(2.05791 1.8087e-19 0.0366382)
(2.02467 0 -0.0109168)
(1.99095 2.12537e-19 -0.0531377)
(1.95707 -2.55787e-19 -0.0908846)
(1.92345 0 -0.124562)
(1.88987 0 -0.154991)
(1.85677 0 -0.182297)
(1.82376 0 -0.207069)
(1.7912 -1.35992e-19 -0.229403)
(1.75875 2.67252e-19 -0.249678)
(1.72656 -1.42126e-19 -0.268048)
(1.69449 4.2836e-19 -0.284722)
(1.66225 5.91223e-19 -0.299923)
(1.63055 -2.44564e-21 -0.313702)
(1.59521 1.18638e-18 -0.326849)
(1.56435 6.77068e-19 -0.338224)
(1.29731 4.13878e-20 0.649948)
(1.31915 8.44046e-20 0.664307)
(1.33932 -8.84441e-21 0.679748)
(1.35958 0 0.696258)
(1.38102 3.26557e-20 0.713846)
(1.40439 -1.64867e-19 0.73244)
(1.43084 -6.56106e-20 0.75219)
(1.46145 6.79208e-20 0.772665)
(1.49746 6.70999e-20 0.793421)
(1.54017 6.84437e-20 0.813035)
(1.59058 7.22603e-20 0.829804)
(1.64835 -5.13268e-22 0.840319)
(1.71418 5.66896e-21 0.842317)
(1.78939 1.45215e-20 0.833481)
(1.8708 1.39259e-19 0.807371)
(1.94893 0 0.763351)
(2.01861 -7.21952e-20 0.701108)
(2.07564 -5.63047e-20 0.624777)
(2.11578 1.27884e-19 0.539684)
(2.13872 -1.61823e-21 0.449817)
(2.14535 -7.4321e-20 0.363149)
(2.13887 -7.57778e-20 0.281634)
(2.12264 1.49739e-19 0.207141)
(2.09996 7.86616e-20 0.140938)
(2.07273 0 0.0814829)
(2.04321 -9.24529e-20 0.0292737)
(2.0122 1.83451e-19 -0.017207)
(1.98032 1.76313e-19 -0.0587503)
(1.94818 -4.632e-19 -0.0958255)
(1.91573 -2.15762e-20 -0.129303)
(1.88345 2.1842e-19 -0.15934)
(1.85108 5.74629e-20 -0.186592)
(1.81898 1.23018e-19 -0.211166)
(1.78688 -7.29339e-19 -0.233497)
(1.75495 5.0171e-19 -0.253746)
(1.72306 -2.57488e-19 -0.272155)
(1.69096 1.3515e-19 -0.28896)
(1.65934 9.61345e-19 -0.304231)
(1.62419 0 -0.318859)
(1.59338 -6.10007e-19 -0.331527)
(1.30803 4.7269e-21 0.627075)
(1.32839 -4.38001e-21 0.63965)
(1.34718 -8.12314e-20 0.653073)
(1.36592 1.57486e-20 0.667328)
(1.38553 3.03987e-20 0.682428)
(1.40661 2.99415e-20 0.698323)
(1.43006 0 0.715197)
(1.45671 -6.19789e-20 0.732777)
(1.48753 6.41965e-20 0.750838)
(1.52358 -6.62508e-20 0.768393)
(1.56575 2.51317e-21 0.784352)
(1.61408 3.3733e-21 0.796046)
(1.66945 -1.07296e-23 0.802062)
(1.73374 -1.388e-19 0.800803)
(1.80565 0 0.786955)
(1.87842 1.3388e-19 0.758164)
(1.94787 -2.79899e-19 0.712753)
(2.01011 7.86574e-20 0.652553)
(2.05997 1.1957e-19 0.580576)
(2.09554 -1.43628e-19 0.499842)
(2.11543 0 0.417734)
(2.1213 -2.08834e-19 0.336936)
(2.11565 2.1629e-19 0.260564)
(2.10136 1.51049e-19 0.190911)
(2.08063 -1.52945e-19 0.127309)
(2.05594 -1.64928e-19 0.0708822)
(2.02852 8.74161e-20 0.0203193)
(1.99934 -1.318e-19 -0.0249843)
(1.96923 -1.43806e-19 -0.0654927)
(1.93831 2.02428e-19 -0.102089)
(1.9072 0 -0.134939)
(1.87572 -5.16291e-20 -0.164756)
(1.84429 2.18834e-19 -0.191653)
(1.81269 -2.17155e-19 -0.216117)
(1.78113 -1.12062e-19 -0.238312)
(1.74951 3.20437e-21 -0.25852)
(1.71761 -1.19368e-19 -0.276983)
(1.6861 -9.94667e-19 -0.293794)
(1.65113 9.45948e-19 -0.309936)
(1.62035 -5.23483e-19 -0.323928)
(1.31788 3.09457e-20 0.606442)
(1.337 4.07093e-21 0.617541)
(1.35466 1.49059e-20 0.629304)
(1.37218 -1.47027e-20 0.641711)
(1.39036 0 0.654771)
(1.4097 0 0.668445)
(1.4309 0 0.682913)
(1.45462 0 0.697991)
(1.4816 -5.74086e-20 0.713581)
(1.5127 1.22642e-19 0.728992)
(1.54867 -1.2269e-19 0.743523)
(1.5897 3.41864e-22 0.755097)
(1.63663 -3.17779e-22 0.762876)
(1.69144 6.81432e-20 0.765867)
(1.75394 1.27576e-19 0.75997)
(1.81952 -7.151e-20 0.74223)
(1.8852 1.3309e-19 0.710441)
(1.94801 7.02129e-20 0.664856)
(2.00286 1.89997e-19 0.60648)
(2.04713 -1.42345e-19 0.537049)
(2.07781 0 0.46253)
(2.09499 6.32833e-20 0.38565)
(2.10002 7.07126e-20 0.310157)
(2.09487 1.11277e-21 0.239106)
(2.08164 -1.43675e-19 0.17275)
(2.0628 1.52673e-19 0.112938)
(2.03987 7.75309e-20 0.0587582)
(2.01413 0 0.0099277)
(1.98663 0 -0.0339199)
(1.95772 0 -0.0736162)
(1.92814 -4.63796e-20 -0.109306)
(1.89784 0 -0.141733)
(1.86731 -2.47066e-20 -0.171007)
(1.8364 0 -0.197662)
(1.80535 -1.06628e-19 -0.221863)
(1.7741 2.10416e-19 -0.243923)
(1.74247 2.21407e-19 -0.264095)
(1.71112 4.52181e-19 -0.28249)
(1.67637 -8.86893e-19 -0.300179)
(1.64563 4.95435e-19 -0.315526)
(1.32698 -3.28879e-20 0.587671)
(1.34505 -6.04422e-20 0.597542)
(1.36174 5.6782e-20 0.607931)
(1.37828 0 0.618815)
(1.39532 0 0.630199)
(1.41329 0 0.642045)
(1.43278 -5.41869e-20 0.654519)
(1.45428 5.50934e-20 0.667484)
(1.47839 -3.42715e-22 0.680908)
(1.50578 -5.94934e-20 0.694292)
(1.53707 -6.13149e-20 0.707188)
(1.57249 -6.42391e-20 0.717973)
(1.61278 -1.81408e-19 0.726187)
(1.65977 6.81601e-20 0.731277)
(1.71385 1.30416e-19 0.730186)
(1.77194 6.43551e-20 0.719975)
(1.83209 -6.24731e-20 0.698441)
(1.89239 -6.24373e-20 0.664969)
(1.9484 0 0.619144)
(1.99752 1.85774e-19 0.561538)
(2.03589 -1.34449e-19 0.496368)
(2.06242 1.35077e-19 0.425892)
(2.07724 -1.36487e-19 0.353851)
(2.08122 0 0.283641)
(2.07604 0 0.216273)
(2.06381 -3.59957e-19 0.154273)
(2.04616 2.19568e-19 0.0972507)
(2.02458 -7.75304e-20 0.0453618)
(2.0003 1.60055e-19 -0.00156341)
(1.97391 4.81444e-21 -0.0442234)
(1.94626 -2.96446e-19 -0.0826961)
(1.91747 1.71205e-19 -0.117723)
(1.8881 1.67404e-20 -0.149392)
(1.85809 0 -0.178267)
(1.82771 9.06035e-22 -0.20451)
(1.79697 0 -0.228463)
(1.76571 -9.91317e-20 -0.250383)
(1.7346 3.14698e-19 -0.270399)
(1.7001 -5.16803e-20 -0.289668)
(1.66943 5.15785e-19 -0.306397)
(1.33542 -6.14536e-20 0.570445)
(1.35257 4.26038e-20 0.579289)
(1.36846 1.34602e-20 0.588537)
(1.38417 0 0.59816)
(1.40029 -2.52646e-20 0.608161)
(1.41716 -2.52835e-20 0.6185)
(1.4353 1.01221e-19 0.629326)
(1.4551 -5.25285e-20 0.640527)
(1.47702 -1.04943e-19 0.652103)
(1.5016 1.09264e-19 0.663679)
(1.52933 1.66295e-19 0.674961)
(1.56045 1.70127e-19 0.684672)
(1.59556 -1.77864e-19 0.692588)
(1.63629 1.17061e-19 0.698461)
(1.68323 -2.42887e-19 0.700044)
(1.73436 0 0.694684)
(1.78849 5.46178e-22 0.680447)
(1.84458 -1.32229e-19 0.656363)
(1.8991 -1.24049e-19 0.621193)
(1.94985 -7.59437e-22 0.574679)
(1.99285 0 0.51937)
(2.02624 -2.51862e-19 0.456797)
(2.04925 -1.00547e-20 0.390214)
(2.06165 0 0.322914)
(2.06447 0 0.256383)
(2.0592 1.31546e-19 0.193631)
(2.04741 2.09938e-19 0.134811)
(2.03062 -2.12433e-19 0.0805685)
(2.01014 0 0.0310165)
(1.98678 -1.53284e-19 -0.0143301)
(1.96149 3.1319e-19 -0.0554264)
(1.93457 -1.58419e-19 -0.0929683)
(1.90664 2.61241e-20 -0.126995)
(1.87776 0 -0.158082)
(1.84825 9.07672e-20 -0.186377)
(1.81816 -3.59098e-19 -0.212241)
(1.7874 1.87146e-19 -0.235935)
(1.75662 -7.66204e-19 -0.2576)
(1.72245 0 -0.278471)
(1.69189 3.31519e-21 -0.296606)
(1.34329 6.48462e-20 0.554496)
(1.35963 4.66925e-20 0.562479)
(1.37482 -5.05528e-20 0.570774)
(1.38982 7.31956e-20 0.57935)
(1.40518 -3.49332e-22 0.588205)
(1.42117 7.19462e-20 0.597299)
(1.43823 -9.63073e-20 0.606762)
(1.45668 2.71e-22 0.6165)
(1.4769 4.91647e-20 0.626522)
(1.49932 -1.02308e-19 0.636536)
(1.52432 -4.95597e-20 0.646339)
(1.55212 2.17364e-19 0.654916)
(1.5832 -5.74799e-20 0.662181)
(1.61896 1.11047e-19 0.668081)
(1.66005 1.12062e-19 0.670971)
(1.7051 -1.23367e-19 0.66857)
(1.75345 0 0.659287)
(1.80469 -1.19728e-19 0.642119)
(1.85616 1.27714e-19 0.615453)
(1.90621 1.18014e-19 0.57856)
(1.9512 0 0.532645)
(1.98898 1.17874e-19 0.478487)
(2.01818 -1.24644e-19 0.418606)
(2.03772 1.23952e-19 0.355845)
(2.0479 0 0.291848)
(2.04954 -2.57057e-19 0.229834)
(2.04386 3.92994e-19 0.170425)
(2.03228 -1.3674e-19 0.114726)
(2.01609 0 0.0631779)
(1.99622 2.8567e-19 0.0155713)
(1.97373 -5.09603e-19 -0.0278744)
(1.94903 2.1925e-19 -0.0677567)
(1.92286 1.33367e-19 -0.104039)
(1.89535 0 -0.137282)
(1.86692 -1.65148e-19 -0.167601)
(1.83766 3.30879e-19 -0.195371)
(1.80753 -8.43979e-20 -0.220843)
(1.77721 6.21477e-19 -0.244169)
(1.74345 -4.40943e-20 -0.266654)
(1.71308 4.8024e-20 -0.286213)
(1.35065 0 0.539592)
(1.36628 -6.29977e-20 0.54685)
(1.38085 5.99058e-20 0.554349)
(1.39524 -2.3318e-20 0.562053)
(1.40994 2.28602e-20 0.569957)
(1.42519 -4.56604e-20 0.57802)
(1.44137 2.40625e-22 0.586356)
(1.45875 1.39609e-19 0.594879)
(1.47762 9.39775e-20 0.603604)
(1.49834 -4.89502e-20 0.612293)
(1.52121 -9.6481e-20 0.620798)
(1.54643 1.04226e-19 0.628296)
(1.57436 1.02891e-19 0.634783)
(1.6062 -2.1452e-19 0.640321)
(1.64256 1.14518e-19 0.643691)
(1.68251 2.28231e-19 0.642984)
(1.72568 -1.1782e-19 0.63694)
(1.77208 0 0.624663)
(1.81978 0 0.604477)
(1.86767 1.22223e-19 0.575459)
(1.91266 0 0.537864)
(1.95264 2.33883e-19 0.491848)
(1.98601 -2.45154e-19 0.439146)
(2.01109 3.54137e-19 0.381966)
(2.0276 -2.43864e-19 0.321847)
(2.03563 -1.26281e-19 0.261932)
(2.03597 2.54104e-19 0.203168)
(2.02978 1.26099e-19 0.147017)
(2.0182 -3.90106e-19 0.0942411)
(2.0022 0 0.0449371)
(1.98287 -2.04985e-19 -0.000467282)
(1.96075 -7.48737e-20 -0.0424226)
(1.93664 1.39334e-19 -0.080785)
(1.91079 1.4536e-19 -0.116069)
(1.88366 -3.82429e-20 -0.148344)
(1.85542 1.56964e-19 -0.177979)
(1.82609 -3.19639e-19 -0.20521)
(1.79634 -3.27869e-19 -0.230189)
(1.76312 6.0975e-19 -0.254285)
(1.73301 4.16473e-20 -0.275275)
(1.35757 0 0.525534)
(1.37254 -4.78579e-20 0.532182)
(1.38656 0 0.539012)
(1.40042 4.42815e-20 0.545988)
(1.41455 -4.37168e-20 0.553101)
(1.42917 -3.72241e-22 0.560309)
(1.44462 -4.37657e-20 0.567711)
(1.46111 4.48157e-20 0.575229)
(1.47889 -8.97983e-20 0.582874)
(1.49825 0 0.59045)
(1.51945 -1.86905e-19 0.597841)
(1.54262 2.9416e-19 0.604369)
(1.56807 -4.17707e-22 0.610071)
(1.59681 -1.02883e-19 0.615077)
(1.62938 2.48729e-21 0.618464)
(1.66511 -1.07005e-19 0.618647)
(1.70382 -1.11561e-19 0.614646)
(1.74576 2.20466e-19 0.605729)
(1.78954 -1.03157e-20 0.590316)
(1.83451 -3.45779e-19 0.567474)
(1.87818 0 0.536865)
(1.91865 3.45675e-19 0.498207)
(1.95437 -1.18025e-19 0.452538)
(1.98335 -2.29917e-19 0.401391)
(2.00489 2.36082e-19 0.346037)
(2.01847 1.15069e-19 0.289308)
(2.0244 5.67145e-21 0.232309)
(2.02351 0 0.176716)
(2.01666 -1.26338e-19 0.123553)
(2.00478 -2.79733e-21 0.0732107)
(1.98891 -1.30737e-19 0.0263387)
(1.96967 3.92016e-19 -0.0173314)
(1.94791 -2.676e-19 -0.0575234)
(1.92397 -3.47163e-20 -0.0946745)
(1.89838 -1.03759e-19 -0.128789)
(1.87136 7.04907e-20 -0.16021)
(1.84299 1.48738e-19 -0.18915)
(1.81397 3.09075e-19 -0.215754)
(1.78142 -6.01816e-19 -0.241439)
(1.75167 0 -0.263854)
(1.36408 -6.04505e-21 0.512146)
(1.37846 5.12157e-20 0.518278)
(1.39197 -4.34547e-20 0.524547)
(1.40535 -6.3269e-20 0.530915)
(1.41898 2.10614e-20 0.53737)
(1.43306 1.8974e-22 0.543868)
(1.44788 3.68694e-22 0.550496)
(1.46362 -8.53981e-20 0.557179)
(1.4805 8.65783e-20 0.563929)
(1.49876 0 0.570576)
(1.5186 1.29502e-21 0.577025)
(1.54013 -9.2295e-20 0.582707)
(1.56361 -9.4007e-20 0.58768)
(1.58987 9.63257e-20 0.592108)
(1.6194 -1.95795e-19 0.595274)
(1.65167 2.09913e-19 0.59586)
(1.68663 3.09213e-19 0.593108)
(1.72463 -2.19201e-19 0.58645)
(1.76469 0 0.574472)
(1.80647 0 0.55633)
(1.84804 0 0.531367)
(1.88781 -3.2805e-19 0.499033)
(1.92441 1.20555e-19 0.459829)
(1.9558 -2.22375e-19 0.41468)
(1.98103 2.28553e-19 0.364511)
(1.99913 2.26294e-19 0.311711)
(2.00998 -3.41323e-19 0.257382)
(2.01402 0 0.203263)
(2.0118 0 0.150546)
(2.00412 1.21148e-19 0.0998703)
(1.99189 1.2356e-19 0.0520903)
(1.97578 -3.07078e-21 0.0071376)
(1.95662 0 -0.0345645)
(1.93483 3.20667e-20 -0.0733478)
(1.911 -1.38729e-19 -0.109134)
(1.8854 2.02292e-19 -0.142225)
(1.85818 0 -0.172792)
(1.83004 -2.86313e-19 -0.200966)
(1.7983 0 -0.228197)
(1.76902 6.26465e-19 -0.252017)
(1.37024 0 0.499273)
(1.38406 1.07943e-20 0.504968)
(1.39711 -1.04715e-20 0.510767)
(1.41004 0 0.516626)
(1.42322 0 0.522532)
(1.43682 -8.04246e-20 0.528441)
(1.45109 0 0.534426)
(1.4662 1.6358e-19 0.54042)
(1.48232 -8.26006e-20 0.546428)
(1.49966 8.40991e-20 0.552301)
(1.51837 -2.59698e-19 0.557961)
(1.53857 8.75984e-20 0.56292)
(1.56044 -9.15161e-20 0.567246)
(1.5847 0 0.571115)
(1.61177 -1.87167e-19 0.573957)
(1.64122 1.02738e-19 0.574668)
(1.67304 0 0.572656)
(1.70765 0 0.567496)
(1.74434 0 0.557958)
(1.78298 -2.07401e-19 0.543325)
(1.8221 8.20441e-21 0.522802)
(1.86043 2.2012e-19 0.495714)
(1.89684 -2.13839e-19 0.462188)
(1.92939 -1.09006e-21 0.422653)
(1.95706 0 0.377702)
(1.9786 2.18153e-19 0.329222)
(1.99354 -2.21987e-19 0.278198)
(2.00196 0 0.2263)
(2.00408 2.24505e-19 0.174785)
(2.0005 -3.3923e-19 0.12447)
(1.99198 -1.14112e-19 0.0763712)
(1.97912 2.34869e-19 0.0306165)
(1.96276 -1.21763e-19 -0.0122219)
(1.94333 0 -0.0523501)
(1.92146 -2.21841e-19 -0.0895949)
(1.89747 4.15617e-19 -0.124197)
(1.87157 2.37651e-21 -0.156277)
(1.84447 -1.34092e-19 -0.185938)
(1.81369 5.35712e-19 -0.214648)
(1.78499 -1.16669e-18 -0.239836)
(1.37608 0 0.486776)
(1.38938 -6.21384e-20 0.492102)
(1.40198 5.98021e-20 0.497504)
(1.41451 -3.8731e-20 0.502938)
(1.42727 3.88345e-20 0.508387)
(1.44043 7.71753e-20 0.513806)
(1.45421 -3.86389e-20 0.51926)
(1.46876 1.18259e-19 0.524682)
(1.48422 -1.59535e-19 0.530076)
(1.50077 2.44857e-19 0.53531)
(1.51855 -9.66277e-22 0.540313)
(1.53764 8.53224e-20 0.544662)
(1.55818 -8.74834e-20 0.548427)
(1.5808 0 0.551791)
(1.60585 9.15648e-20 0.554282)
(1.63298 -9.16787e-20 0.554968)
(1.6622 1.94344e-19 0.553382)
(1.69393 0 0.549211)
(1.72764 0 0.541401)
(1.76335 2.05893e-19 0.529362)
(1.79995 -2.04319e-19 0.512276)
(1.83644 7.22334e-21 0.489435)
(1.87195 2.13805e-19 0.460731)
(1.90472 4.1403e-19 0.426233)
(1.93377 -2.13843e-19 0.386245)
(1.95771 0 0.342173)
(1.97586 2.10519e-19 0.294817)
(1.98799 -2.15986e-19 0.245681)
(1.99401 2.19559e-19 0.195994)
(1.9943 0 0.146669)
(1.9894 2.21709e-19 0.0988278)
(1.97984 -1.06744e-19 0.0527705)
(1.96638 -2.32693e-19 0.00920531)
(1.94946 2.30566e-19 -0.0319401)
(1.92971 -2.94731e-20 -0.0703894)
(1.90751 -2.24021e-20 -0.106307)
(1.8831 6.27208e-20 -0.139752)
(1.8572 0 -0.17079)
(1.82753 -1.0052e-18 -0.200889)
(1.79953 -3.66009e-21 -0.22739)
(1.38163 0 0.474533)
(1.39443 -1.06273e-23 0.479545)
(1.40662 1.90484e-20 0.484613)
(1.41875 -1.88174e-20 0.489691)
(1.43112 7.45701e-20 0.49476)
(1.44387 0 0.499772)
(1.4572 -7.51444e-20 0.504786)
(1.47124 -7.64324e-20 0.509736)
(1.48613 -7.74537e-20 0.514624)
(1.502 4.89021e-22 0.51933)
(1.51897 -8.0313e-20 0.523789)
(1.53711 0 0.527628)