/*--------------------------------*- C++ -*----------------------------------*\
| =========                 |                                                 |
| \\      /  F ield         | OpenFOAM: The Open Source CFD Toolbox           |
|  \\    /   O peration     | Version:  5.x                                   |
|   \\  /    A nd           | Web:      www.OpenFOAM.org                      |
|    \\/     M anipulation  |                                                 |
\*---------------------------------------------------------------------------*/
FoamFile
{
    version     2.0;
    format      ascii;
    class       volScalarField;
    location    "100";
    object      nuTilda;
}
// * * * * * * * * * * * * * * * * * * * * * * * * * * * * * * * * * * * * * //

dimensions      [0 2 -1 0 0 0 0];

internalField   nonuniform List<scalar> 
26000
(
0.000828129
0.000640782
0.000483876
0.000382003
0.0003137
0.000265404
0.000230775
0.000208641
0.000197855
0.000191477
0.000187118
0.000184708
0.000180275
0.000179626
0.000179465
0.00017886
0.000178865
0.000179753
0.000181279
0.000183589
0.000186257
0.00018906
0.000192338
0.000195768
0.000198675
0.000200928
0.000202803
0.000204695
0.000206602
0.000208581
0.000210333
0.000211505
0.000212201
0.000212397
0.000212133
0.000211323
0.000209954
0.000207975
0.000204722
0.000201557
0.00367148
0.00304575
0.00238268
0.00190385
0.00156211
0.00131543
0.00113033
0.000992507
0.000883305
0.000800964
0.00073625
0.00068688
0.00064479
0.000610417
0.000586289
0.000564103
0.000544278
0.000531607
0.000522396
0.000519216
0.000517715
0.000516447
0.000518598
0.00052142
0.000520045
0.000514129
0.000506541
0.000499928
0.000494225
0.000489843
0.000484643
0.000476614
0.000467425
0.000456923
0.000445607
0.000433172
0.000420023
0.000406461
0.000391136
0.000378809
0.0070459
0.006085
0.00507727
0.00422042
0.00352408
0.00298985
0.00257658
0.00226137
0.00201129
0.00181818
0.00166595
0.00154823
0.00144894
0.00135791
0.00127778
0.00121729
0.00116548
0.00112027
0.0010853
0.00105741
0.00103735
0.00101764
0.00100067
0.000988753
0.000981462
0.000977314
0.000974594
0.000975313
0.000977582
0.000982901
0.000983772
0.000977073
0.000968846
0.000956857
0.000941781
0.000922946
0.000901215
0.000877039
0.000847169
0.000822054
0.010807
0.00963318
0.00832539
0.00708074
0.00603804
0.00519054
0.00450177
0.00395144
0.00350391
0.00314878
0.00286475
0.00264514
0.00246051
0.00229213
0.00215865
0.00205777
0.00197199
0.00189923
0.00184226
0.00179737
0.00176395
0.00172658
0.00169183
0.00166497
0.0016433
0.00162566
0.0016095
0.00159742
0.0015875
0.0015806
0.00157624
0.00157317
0.00157246
0.00156308
0.00154753
0.00152451
0.00149537
0.00146075
0.00141638
0.00137748
0.0148503
0.0135227
0.0119773
0.0104569
0.00908942
0.00790855
0.00690957
0.00608393
0.005401
0.00485
0.00440401
0.00405543
0.00376311
0.00350041
0.00328594
0.00312123
0.00298102
0.00285905
0.00275877
0.00267543
0.00261036
0.00255482
0.00250831
0.00247282
0.00244436
0.00241738
0.00239054
0.00236833
0.00234655
0.00232662
0.00230914
0.00229312
0.00228049
0.00226833
0.00225502
0.00222957
0.00219375
0.00214851
0.00208871
0.00203465
0.0191043
0.017666
0.0159513
0.014215
0.0125712
0.0110985
0.00979981
0.00867978
0.00772949
0.00694577
0.00630127
0.00579001
0.0053589
0.00497126
0.00464314
0.004387
0.00418001
0.00400383
0.00385757
0.00373435
0.00363488
0.00354704
0.00347215
0.00341225
0.00336072
0.00332053
0.00328614
0.0032594
0.00322849
0.00319859
0.00316919
0.0031396
0.00311249
0.00308591
0.00306166
0.0030334
0.0029913
0.00293503
0.00285885
0.0027884
0.0235045
0.0219891
0.0201581
0.0182587
0.0164048
0.0146754
0.013093
0.0116926
0.0104674
0.00942828
0.00855538
0.00785047
0.0072502
0.00671145
0.00625554
0.00589364
0.00559916
0.00534957
0.00513899
0.00495759
0.00481129
0.00468791
0.00458386
0.00449955
0.00442188
0.00435914
0.00430368
0.00425771
0.00421738
0.00418147
0.00414225
0.00410065
0.00405962
0.00401707
0.00397619
0.00393439
0.00388503
0.00381689
0.00372326
0.00363521
0.0279929
0.0264288
0.0245248
0.022512
0.0205052
0.0185717
0.016751
0.0150854
0.0135885
0.0122863
0.0111688
0.0102498
0.00945812
0.0087452
0.00813489
0.00764436
0.00723823
0.00689444
0.0066094
0.00636254
0.0061619
0.00598898
0.00584114
0.00571969
0.00561443
0.00553048
0.00545205
0.00538389
0.00532278
0.00526819
0.00521908
0.00516754
0.0051137
0.00505534
0.00499649
0.00493578
0.00487347
0.00479152
0.00467917
0.00457235
0.0325162
0.0309283
0.028987
0.026905
0.0247928
0.0227087
0.0206924
0.0188013
0.0170578
0.0155021
0.0141343
0.0129872
0.0119851
0.0110763
0.0102857
0.00964401
0.00911143
0.00865734
0.00828089
0.00795094
0.00767828
0.00744919
0.00725288
0.00708884
0.0069439
0.00682458
0.00672114
0.0066321
0.00654851
0.00647123
0.00640161
0.00633485
0.0062687
0.00619498
0.00611771
0.00603618
0.00595349
0.00585666
0.00572417
0.00559739
0.0370259
0.0354359
0.033487
0.0313726
0.0291943
0.0270105
0.0248478
0.0227735
0.0208118
0.0190211
0.0174163
0.0160403
0.0148179
0.0136958
0.0127101
0.0119011
0.011225
0.0106403
0.0101518
0.00972782
0.00937452
0.00907619
0.00881749
0.00860123
0.00841281
0.00825441
0.00811577
0.00799499
0.00788772
0.00778752
0.00769439
0.00760492
0.0075206
0.00743139
0.00733528
0.00723188
0.00712601
0.00701062
0.00685581
0.00670791
0.041479
0.0399056
0.037974
0.0358589
0.0336519
0.0314086
0.0291454
0.0269296
0.0247944
0.0228013
0.0209757
0.0193789
0.0179376
0.016598
0.0154044
0.014413
0.0135722
0.0128441
0.0122311
0.0116983
0.0112494
0.0108685
0.0105395
0.0102628
0.0100196
0.00981409
0.00963704
0.0094798
0.00933934
0.00921119
0.00909362
0.0089789
0.00886991
0.00876107
0.00864507
0.0085189
0.00838818
0.00825067
0.00807141
0.00790145
0.0458383
0.044297
0.0424028
0.0403125
0.0381081
0.0358405
0.0335185
0.0312049
0.0289373
0.0267752
0.0247611
0.0229634
0.0213138
0.0197597
0.0183529
0.017167
0.0161532
0.0152686
0.014517
0.0138577
0.013303
0.0128303
0.012418
0.0120697
0.0117664
0.0115055
0.0112788
0.0110826
0.0109051
0.0107419
0.0105941
0.0104531
0.0103164
0.01018
0.0100433
0.00989331
0.00973631
0.00957342
0.00936802
0.00917536
0.0500722
0.0485758
0.046735
0.0446898
0.0425126
0.0402499
0.0379049
0.0355334
0.0331739
0.0308845
0.0287143
0.0267387
0.0248982
0.0231421
0.0215287
0.0201482
0.0189561
0.0179046
0.0170019
0.0162064
0.0155338
0.0149542
0.0144507
0.0140231
0.0136468
0.0133253
0.0130441
0.012797
0.0125802
0.0123787
0.0121947
0.0120228
0.0118566
0.0116897
0.0115266
0.0113512
0.0111665
0.0109749
0.0107425
0.0105268
0.0541557
0.052714
0.0509389
0.0489544
0.046824
0.0445878
0.0422509
0.0398559
0.0374383
0.0350633
0.0327715
0.0306532
0.0286484
0.0267098
0.024902
0.023331
0.0219552
0.0207338
0.0196771
0.018736
0.0179335
0.0172397
0.016635
0.0161171
0.015663
0.0152719
0.014928
0.0146261
0.0143583
0.0141163
0.0138929
0.0136824
0.0134857
0.0132861
0.0130903
0.0128886
0.0126747
0.0124507
0.0121914
0.0119526
0.058069
0.0566895
0.054989
0.0530774
0.0510099
0.0488213
0.0465144
0.044125
0.0416839
0.0392561
0.03688
0.0346495
0.0325065
0.0304094
0.0284273
0.0266791
0.0251279
0.0237381
0.0225196
0.0214299
0.0204944
0.0196781
0.0189625
0.0183483
0.0178051
0.01734
0.0169278
0.0165632
0.0162413
0.0159488
0.0156839
0.0154323
0.0151988
0.0149646
0.014734
0.0145019
0.0142567
0.0140003
0.0137116
0.013449
0.0617982
0.0604857
0.0588659
0.0570354
0.0550423
0.0529166
0.0506584
0.0482979
0.0458614
0.043409
0.0409838
0.0386716
0.0364253
0.0341993
0.0320671
0.0301593
0.0284436
0.0268875
0.0255119
0.0242734
0.0231969
0.022255
0.0214252
0.0207057
0.0200698
0.0195198
0.019036
0.0186047
0.0182217
0.0178762
0.0175615
0.017267
0.0169896
0.0167197
0.0164526
0.0161863
0.0159081
0.0156183
0.0152986
0.015012
0.0653342
0.0640916
0.0625558
0.0608115
0.0589005
0.0568485
0.0546534
0.0523406
0.0499324
0.0474838
0.0450376
0.0426749
0.040354
0.0380263
0.0357706
0.0337251
0.0318628
0.0301549
0.0286299
0.027242
0.026027
0.0249578
0.0240077
0.0231814
0.0224446
0.0218074
0.0212425
0.0207422
0.0202949
0.0198915
0.0195236
0.0191807
0.0188577
0.0185464
0.0182405
0.0179364
0.0176237
0.0172995
0.0169479
0.0166376
0.0686726
0.0675011
0.0660503
0.0643946
0.0625703
0.0605992
0.0584773
0.0562262
0.0538645
0.0514422
0.049
0.0466142
0.0442469
0.0418497
0.0395001
0.0373414
0.0353523
0.0335084
0.0318415
0.0303133
0.028965
0.0277663
0.0266977
0.025759
0.0249215
0.0241901
0.0235429
0.0229656
0.022452
0.021985
0.0215626
0.0211655
0.0207961
0.0204377
0.0200922
0.0197458
0.0193984
0.019039
0.0186547
0.0183214
0.071813
0.0707122
0.0693459
0.0677791
0.0660433
0.0641572
0.0621153
0.0599358
0.0576341
0.0552551
0.0528371
0.0504517
0.0480611
0.0456245
0.0432099
0.040964
0.0388688
0.0369104
0.0351192
0.0334616
0.0319843
0.030663
0.0294744
0.0284267
0.0274841
0.0266596
0.0259244
0.0252698
0.0246838
0.0241528
0.0236713
0.0232186
0.0227982
0.0223918
0.0220027
0.0216132
0.0212275
0.0208315
0.0204143
0.0200591
0.0747582
0.0737266
0.0724427
0.0709636
0.0693163
0.0675168
0.0655588
0.0634575
0.0612254
0.0589026
0.056523
0.0541598
0.0517707
0.049317
0.0468604
0.0445521
0.0423786
0.0403224
0.038425
0.0366541
0.0350616
0.0336223
0.0323215
0.0311641
0.0301209
0.0292001
0.0283788
0.0276426
0.0269843
0.0263855
0.0258395
0.0253313
0.0248557
0.0244011
0.0239657
0.0235318
0.0231057
0.0226719
0.0222217
0.0218461
0.0775135
0.0765487
0.0753445
0.0739503
0.0723899
0.0706769
0.0688043
0.066785
0.0646294
0.062373
0.0600463
0.0577188
0.0553495
0.0529005
0.0504281
0.0480812
0.0458504
0.0437196
0.0417352
0.0398667
0.0381686
0.0366243
0.0352153
0.0339564
0.0328127
0.0318005
0.030891
0.0300754
0.0293424
0.028672
0.0280633
0.027496
0.0269649
0.0264589
0.025974
0.0254949
0.0250271
0.0245547
0.0240718
0.0236779
0.0800863
0.0791855
0.0780572
0.0767447
0.0752684
0.0736402
0.0718526
0.0699168
0.0678414
0.065658
0.0633941
0.0611137
0.0587783
0.0563513
0.0538847
0.0515209
0.0492532
0.0470671
0.0450169
0.04307
0.0412836
0.0396429
0.0381384
0.0367818
0.0355462
0.0344433
0.0334507
0.0325552
0.0317453
0.0310063
0.0303324
0.0297028
0.0291172
0.0285579
0.0280197
0.0274962
0.0269859
0.0264745
0.0259595
0.0255497
0.0824854
0.0816453
0.0805888
0.079354
0.0779587
0.0764126
0.0747081
0.0728554
0.0708617
0.0687552
0.0665604
0.064336
0.0620454
0.0596518
0.0572099
0.054848
0.0525618
0.0503442
0.0482428
0.0462347
0.0443793
0.0426593
0.0410675
0.0396251
0.0383016
0.0371163
0.0360425
0.0350673
0.0341854
0.033377
0.0326363
0.0319471
0.0313049
0.0306903
0.0301004
0.02953
0.0289761
0.0284256
0.0278798
0.0274569
0.0847206
0.0839375
0.0829485
0.0817871
0.080469
0.0790033
0.0773779
0.0756062
0.0736939
0.0716659
0.0695443
0.0673824
0.0651461
0.0627992
0.0603931
0.0580467
0.0557636
0.0535323
0.0513997
0.0493466
0.0474322
0.0456498
0.0439864
0.0424653
0.0410657
0.0398026
0.0386504
0.0376028
0.03665
0.0357721
0.0349689
0.0342198
0.0335197
0.0328475
0.0322079
0.03159
0.0309919
0.0304025
0.0298273
0.0293947
0.0868022
0.0860724
0.0851462
0.0840532
0.0828073
0.0814164
0.0798686
0.0781761
0.076344
0.0743948
0.0723483
0.0702532
0.0680775
0.0657867
0.0634278
0.0611117
0.0588443
0.0566143
0.0544672
0.0523863
0.0504298
0.0485936
0.0468742
0.045289
0.0438205
0.042485
0.0412645
0.0401479
0.0391259
0.0381849
0.03732
0.0365111
0.035753
0.0350259
0.0343357
0.0336698
0.0330273
0.0323996
0.031797
0.0313585
0.0887407
0.0880605
0.0871929
0.0861637
0.0849853
0.0836644
0.0821903
0.0805741
0.0788201
0.0769487
0.0749778
0.0729517
0.0708409
0.0686124
0.0663092
0.0640342
0.0617942
0.0595782
0.05743
0.0553362
0.0533537
0.0514804
0.0497134
0.0480778
0.0465489
0.0451539
0.0438705
0.0426885
0.041606
0.0406042
0.0396788
0.0388116
0.0379953
0.0372168
0.0364765
0.0357631
0.0350764
0.0344113
0.0337836
0.0333436
0.0905465
0.0899124
0.0890991
0.0881298
0.0870157
0.0857592
0.0843543
0.0828106
0.081132
0.0793366
0.0774406
0.0754842
0.0734405
0.0712782
0.0690367
0.0668111
0.0646083
0.0624171
0.0602771
0.0581826
0.056188
0.0542944
0.0524954
0.0508188
0.0492425
0.0477948
0.0464542
0.0452179
0.0440789
0.0430193
0.042035
0.041112
0.0402435
0.0394132
0.0386235
0.0378633
0.0371333
0.0364323
0.0357822
0.0353455
0.0922296
0.0916383
0.0908752
0.0899607
0.088905
0.0877101
0.0863707
0.0848962
0.0832899
0.0815684
0.079746
0.0778589
0.0758829
0.0737891
0.0716131
0.0694428
0.067285
0.0651289
0.0630109
0.0609279
0.058932
0.0570246
0.0552071
0.0534982
0.0518868
0.0503947
0.0490097
0.0477244
0.0465336
0.0454198
0.0443852
0.0434102
0.04249
0.0416075
0.0407697
0.0399642
0.0391925
0.0384573
0.0377879
0.0373596
0.0937998
0.0932483
0.0925319
0.0916692
0.0906661
0.0895282
0.0882505
0.0868413
0.085304
0.0836541
0.0819051
0.080085
0.0781764
0.0761517
0.0740433
0.0719324
0.0698254
0.0677119
0.0656258
0.0635649
0.0615789
0.0596699
0.057842
0.0561134
0.0544727
0.052949
0.051526
0.0501978
0.0489599
0.0478019
0.0467209
0.0456976
0.0447276
0.0437916
0.0429088
0.0420601
0.0412486
0.0404812
0.039796
0.0393818
0.0952659
0.0947512
0.0940785
0.0932613
0.092308
0.0912236
0.0900038
0.0886563
0.0871845
0.0856024
0.0839226
0.08217
0.080329
0.0783741
0.0763341
0.0742848
0.0722326
0.0701673
0.0681204
0.0660902
0.0641235
0.0622229
0.0603916
0.0586559
0.0569976
0.055449
0.0539944
0.0526288
0.0513549
0.0501575
0.0490342
0.0479665
0.04695
0.0459646
0.0450352
0.0441456
0.0432967
0.0424991
0.0418021
0.041408
0.0966358
0.0961545
0.0955208
0.0947466
0.0938401
0.0928061
0.0916408
0.0903517
0.0889421
0.0874247
0.0858108
0.0841237
0.0823497
0.0804661
0.0784933
0.0765067
0.0745116
0.0724985
0.0704962
0.0685034
0.066564
0.0646808
0.0628573
0.0611209
0.0594538
0.0578877
0.056407
0.0550157
0.0537111
0.0524793
0.0513183
0.0502103
0.0491508
0.0481196
0.0471423
0.0462156
0.045332
0.0445072
0.0438021
0.0434343
0.0979183
0.0974687
0.0968696
0.0961349
0.0952719
0.0942851
0.0931712
0.0919375
0.0905872
0.0891328
0.0875805
0.0859559
0.0842464
0.0824309
0.0805272
0.0786049
0.0766686
0.0747104
0.0727568
0.0708064
0.0689004
0.0670419
0.0652343
0.0635047
0.0618362
0.0602599
0.0587636
0.0573519
0.0560222
0.0547611
0.0535671
0.052423
0.0513245
0.0502515
0.0492306
0.0482668
0.0473506
0.0465015
0.0457923
0.045457
0.0991191
0.0986977
0.0981318
0.0974343
0.0966121
0.0956696
0.0946041
0.0934226
0.092128
0.0907319
0.08924
0.0876762
0.0860293
0.0842795
0.0824442
0.0805883
0.0787104
0.0768088
0.0749072
0.0730028
0.0711349
0.0693067
0.0675217
0.0658053
0.064142
0.0625603
0.0610577
0.0596322
0.0582829
0.0569977
0.0557754
0.0545997
0.0534663
0.0523554
0.0512946
0.050295
0.0493483
0.0484783
0.047769
0.0474728
0.100246
0.0998504
0.0993153
0.0986526
0.0978687
0.0969681
0.0959485
0.0948167
0.0935758
0.0922335
0.0907989
0.089294
0.0877091
0.0860214
0.0842516
0.0824594
0.0806421
0.0787992
0.0769542
0.0750976
0.0732707
0.0714774
0.0697204
0.0680225
0.0663709
0.0647925
0.0632874
0.0618532
0.0604896
0.0591852
0.0579392
0.0567361
0.0555719
0.0544272
0.0533298
0.0522956
0.0513217
0.0504342
0.049729
0.0494783
0.101305
0.100934
0.100427
0.099797
0.0990491
0.098188
0.097212
0.0961276
0.0949352
0.0936448
0.0922652
0.0908164
0.0892896
0.0876638
0.0859585
0.0842282
0.0824712
0.0806863
0.0788971
0.077095
0.0753118
0.0735569
0.0718336
0.070157
0.0685223
0.0669541
0.0654509
0.0640126
0.0626393
0.0613204
0.0600552
0.0588291
0.0576381
0.0564635
0.055333
0.054264
0.0532675
0.0523661
0.0516692
0.0514705
0.102303
0.101953
0.101474
0.100874
0.10016
0.0993363
0.0984017
0.0973597
0.0962138
0.0949735
0.0936473
0.0922537
0.0907812
0.0892153
0.0875744
0.0859035
0.084207
0.0824775
0.0807426
0.078994
0.0772613
0.0755482
0.0738576
0.0722083
0.070596
0.0690454
0.0675473
0.066109
0.0647304
0.0634012
0.0621211
0.0608761
0.0596622
0.0584616
0.0573017
0.0562025
0.0551839
0.0542715
0.0535868
0.0534465
0.103243
0.102915
0.10246
0.101889
0.101207
0.100419
0.0995212
0.0985199
0.0974185
0.0962265
0.0949522
0.0936091
0.09219
0.0906819
0.0891014
0.0874899
0.0858513
0.0841789
0.0824975
0.0808011
0.0791172
0.0774481
0.0757957
0.0741783
0.0725927
0.0710612
0.0695756
0.0681417
0.0667617
0.0654264
0.0641354
0.0628753
0.0616424
0.0604194
0.0592338
0.0581078
0.0570685
0.056148
0.0554795
0.0554038
0.104131
0.103822
0.103391
0.102847
0.102196
0.101439
0.100577
0.0996145
0.0985559
0.0974093
0.0961832
0.0948898
0.0935234
0.0920726
0.0905492
0.0889968
0.0874135
0.0857989
0.0841696
0.0825242
0.0808886
0.0792643
0.0776529
0.0760706
0.0745161
0.073005
0.0715377
0.0701109
0.0687332
0.0673955
0.0660973
0.0648258
0.0635774
0.0623355
0.0611275
0.0599779
0.0589187
0.0579936
0.057345
0.0573397
0.104967
0.104678
0.104271
0.103753
0.103128
0.102402
0.101574
0.10065
0.0996334
0.0985305
0.0973487
0.0961031
0.094788
0.0933895
0.0919221
0.0904254
0.0888976
0.0873386
0.0857648
0.0841698
0.0825822
0.0810032
0.0794354
0.0778893
0.0763636
0.0748768
0.0734295
0.0720165
0.0706453
0.0693086
0.0680066
0.0667271
0.0654663
0.0642085
0.0629814
0.0618114
0.0607361
0.0598074
0.0591812
0.059252
0.105757
0.105485
0.105099
0.104605
0.104007
0.103311
0.102516
0.101629
0.100651
0.0995895
0.0984525
0.097254
0.095986
0.0946395
0.093228
0.0917844
0.0903117
0.0888049
0.0872837
0.0857426
0.084204
0.0826698
0.0811409
0.0796314
0.0781385
0.0766799
0.0752549
0.0738615
0.0724991
0.0711663
0.0698637
0.0685792
0.0673089
0.0660378
0.0647942
0.0636068
0.0625183
0.0615875
0.0609863
0.0611384
0.106503
0.106248
0.105882
0.10541
0.104839
0.104171
0.103408
0.102555
0.101613
0.100593
0.0994996
0.0983441
0.0971228
0.0958277
0.094468
0.0930781
0.0916568
0.0902038
0.0887322
0.0872415
0.0857508
0.084262
0.0827748
0.0813029
0.0798454
0.0784189
0.0770166
0.0756423
0.0742959
0.0729696
0.0716694
0.0703828
0.0691054
0.0678227
0.0665651
0.065363
0.0642634
0.0633324
0.0627586
0.0629969
0.107208
0.106969
0.106622
0.106173
0.105627
0.104986
0.104253
0.103432
0.102526
0.101545
0.100492
0.0993789
0.0982035
0.0969554
0.0956472
0.0943068
0.0929379
0.0915355
0.0901161
0.0886754
0.0872304
0.0857881
0.0843432
0.0829083
0.0814883
0.0800918
0.0787172
0.0773621
0.0760316
0.0747187
0.0734247
0.0721387
0.0708563
0.0695623
0.068293
0.0670791
0.0659699
0.0650406
0.0644964
0.0648253
0.107875
0.10765
0.107321
0.106894
0.106371
0.105756
0.105052
0.104264
0.103393
0.102448
0.101435
0.100363
0.0992291
0.0980278
0.0967664
0.0954745
0.0941553
0.092805
0.0914342
0.0900428
0.0886464
0.0872465
0.0858433
0.0844498
0.0830652
0.0817022
0.0803542
0.0790235
0.0777091
0.076409
0.075123
0.0738397
0.0725547
0.0712545
0.0699769
0.0687548
0.0676363
0.0667111
0.0661985
0.0666217
0.108505
0.108293
0.107981
0.107573
0.107073
0.106485
0.105809
0.10505
0.104212
0.103303
0.102327
0.101294
0.100204
0.099046
0.0978315
0.0965882
0.0953155
0.0940139
0.0926933
0.0913506
0.09
0.0886433
0.0872801
0.0859263
0.0845802
0.0832483
0.0819309
0.0806234
0.0793311
0.0780445
0.0767681
0.0754892
0.0742021
0.0728991
0.0716161
0.0703875
0.0692605
0.0683432
0.0678639
0.0683844
0.109099
0.108899
0.108602
0.108214
0.107736
0.107172
0.106522
0.105794
0.104988
0.104113
0.103173
0.102179
0.101128
0.100016
0.0988472
0.0976488
0.0964237
0.0951687
0.0938928
0.0925975
0.09129
0.0899762
0.0886573
0.0873438
0.0860331
0.0847339
0.0834461
0.0821651
0.0808952
0.0796278
0.0783634
0.0770902
0.0757987
0.0744963
0.0732109
0.071978
0.0708473
0.0699382
0.069492
0.0701116
0.109658
0.10947
0.109187
0.108816
0.108359
0.10782
0.107197
0.106496
0.105721
0.10488
0.103975
0.103018
0.102007
0.100935
0.0998129
0.0986599
0.0974796
0.0962685
0.0950382
0.0937858
0.092523
0.0912505
0.0899739
0.0887008
0.0874296
0.0861651
0.0849057
0.0836537
0.0824064
0.0811554
0.079904
0.0786386
0.0773487
0.0760474
0.0747616
0.0735268
0.0723953
0.071497
0.071082
0.0718018
0.110184
0.110006
0.109737
0.109382
0.108944
0.108427
0.107831
0.107158
0.106414
0.105604
0.104735
0.103813
0.102839
0.101809
0.100728
0.0996202
0.0984828
0.0973184
0.0961305
0.0949204
0.0936989
0.0924707
0.0912372
0.090004
0.0887683
0.0875399
0.0863121
0.0850873
0.0838615
0.0826311
0.0813943
0.080138
0.0788509
0.0775528
0.0762687
0.0750342
0.0739035
0.0730143
0.0726324
0.0734534
0.11068
0.110512
0.110255
0.109914
0.109494
0.108997
0.108425
0.10778
0.107066
0.106287
0.105451
0.104566
0.103628
0.102637
0.101598
0.100532
0.0994374
0.0983124
0.0971675
0.0959989
0.0948213
0.0936348
0.0924453
0.0912524
0.0900535
0.0888573
0.0876623
0.086464
0.0852637
0.0840523
0.0828302
0.0815831
0.0803041
0.0790125
0.0777328
0.0765007
0.0753726
0.0744919
0.0741427
0.0750651
0.111149
0.110989
0.110743
0.110415
0.11001
0.109532
0.108981
0.108362
0.107676
0.106929
0.106126
0.105275
0.104373
0.103419
0.102421
0.101394
0.100338
0.0992552
0.0981509
0.0970263
0.0958903
0.0947476
0.0935993
0.0924456
0.091284
0.0901223
0.088957
0.0877885
0.0866122
0.0854239
0.0842172
0.0829765
0.0817094
0.0804275
0.0791547
0.0779273
0.0768037
0.075931
0.0756133
0.0766361
0.111593
0.111441
0.111205
0.110888
0.110497
0.110035
0.109504
0.108908
0.108249
0.107532
0.10676
0.105941
0.105075
0.104159
0.103198
0.102209
0.101192
0.100148
0.0990865
0.0980034
0.0969114
0.0958101
0.0946995
0.0935835
0.092459
0.091334
0.0902014
0.0890601
0.0879113
0.0867448
0.0855528
0.084324
0.0830696
0.0817993
0.0805358
0.0793151
0.0781986
0.0773327
0.0770445
0.0781658
0.112016
0.111871
0.111643
0.111337
0.110959
0.110511
0.109997
0.109421
0.108786
0.108096
0.107355
0.106569
0.105735
0.104854
0.103929
0.102976
0.101998
0.100996
0.0999758
0.0989364
0.0978859
0.096825
0.0957532
0.0946747
0.0935862
0.0924936
0.0913953
0.0902837
0.0891604
0.088014
0.0868404
0.0856256
0.084386
0.0831297
0.0818776
0.0806654
0.0795555
0.0786974
0.0784371
0.079654
0.11242
0.112281
0.11206
0.111764
0.111397
0.110962
0.110464
0.109906
0.109291
0.108625
0.10791
0.107153
0.106352
0.105504
0.104616
0.103703
0.102764
0.101802
0.100825
0.0998265
0.0988144
0.0977925
0.0967594
0.0957183
0.0946657
0.0936066
0.0925399
0.091458
0.0903589
0.0892364
0.0880772
0.086882
0.0856605
0.0844206
0.0831822
0.0819801
0.0808772
0.0800269
0.0797921
0.0811007
0.112807
0.112673
0.112459
0.112172
0.111815
0.111392
0.110908
0.110366
0.10977
0.109125
0.108434
0.107704
0.106933
0.106119
0.105267
0.10439
0.103491
0.102569
0.101629
0.100668
0.099696
0.0987132
0.0977184
0.0967144
0.0956976
0.094672
0.0936347
0.0925841
0.0915125
0.090413
0.0892716
0.0880968
0.0868957
0.0856747
0.0844521
0.0832617
0.0821665
0.0813232
0.081111
0.0825065
0.11318
0.11305
0.112843
0.112563
0.112215
0.111805
0.111333
0.110807
0.110228
0.109602
0.108933
0.108227
0.107483
0.1067
0.105883
0.105043
0.104181
0.103295
0.102392
0.101468
0.100534
0.0995893
0.098632
0.0976646
0.0966835
0.0956919
0.0946861
0.0936634
0.0926207
0.0915426
0.0904242
0.0892729
0.0880947
0.0868948
0.0856902
0.0845131
0.0834261
0.082589
0.0823959
0.0838723
0.113539
0.113414
0.113213
0.11294
0.112602
0.112201
0.111743
0.11123
0.110668
0.11006
0.109411
0.108727
0.108007
0.107252
0.106465
0.105657
0.104829
0.10398
0.103114
0.102227
0.101331
0.100423
0.0995026
0.098571
0.0976248
0.0966679
0.0956949
0.0947024
0.0936869
0.0926298
0.0915385
0.0904138
0.0892609
0.0880844
0.0868999
0.0857373
0.0846586
0.0838267
0.0836489
0.0851993
0.113888
0.113767
0.113571
0.113305
0.112975
0.112585
0.112138
0.111639
0.111092
0.110502
0.109872
0.109209
0.108512
0.107782
0.107023
0.106244
0.105447
0.104631
0.103799
0.10295
0.10209
0.101218
0.100333
0.0994365
0.0985237
0.0976023
0.0966628
0.0957015
0.0947131
0.0936833
0.0926205
0.0915242
0.0903984
0.0892472
0.0880852
0.0869375
0.0858669
0.085039
0.0848726
0.0864893
0.114227
0.11411
0.113919
0.11366
0.113338
0.112958
0.112523
0.112037
0.111505
0.110931
0.11032
0.109677
0.109002
0.108296
0.107562
0.106811
0.106043
0.105257
0.104457
0.103642
0.102815
0.101978
0.101127
0.100265
0.0993888
0.0984997
0.097593
0.096664
0.0957065
0.0947075
0.0936752
0.0926088
0.0915116
0.0903871
0.0892507
0.0881174
0.0870533
0.0862293
0.0860699
0.0877441
0.114558
0.114444
0.114258
0.114006
0.113692
0.113321
0.112898
0.112425
0.111908
0.111351
0.110758
0.110134
0.10948
0.108797
0.108089
0.107364
0.106623
0.105866
0.105096
0.104313
0.103518
0.102713
0.101896
0.101068
0.100226
0.0993701
0.0984964
0.0976002
0.0966752
0.0957086
0.0947082
0.0936728
0.092605
0.0915078
0.0903955
0.0892793
0.0882242
0.0874017
0.0872443
0.0889662
0.114881
0.114771
0.11459
0.114344
0.114038
0.113677
0.113265
0.112805
0.112303
0.111762
0.111187
0.110583
0.10995
0.10929
0.108606
0.107907
0.107193
0.106464
0.105724
0.10497
0.104207
0.103434
0.10265
0.101854
0.101045
0.100223
0.099382
0.0985188
0.0976266
0.0966932
0.0957254
0.0947216
0.0936838
0.0926143
0.0915258
0.0904277
0.0893823
0.0885598
0.0883993
0.0901585
0.115199
0.115091
0.114915
0.114676
0.114378
0.114027
0.113626
0.11318
0.112692
0.112168
0.11161
0.111026
0.110414
0.109777
0.109117
0.108444
0.107757
0.107056
0.106344
0.10562
0.104888
0.104147
0.103394
0.102631
0.101855
0.101065
0.100257
0.0994269
0.0985678
0.0976677
0.0967326
0.0957607
0.0947531
0.0937113
0.0926467
0.091567
0.0905315
0.0897075
0.0895388
0.091324
0.115511
0.115407
0.115236
0.115003
0.114713
0.114372
0.113982
0.113549
0.113076
0.112569
0.11203
0.111464
0.110874
0.11026
0.109625
0.108977
0.108317
0.107644
0.106961
0.106267
0.105566
0.104856
0.104135
0.103404
0.102661
0.101904
0.101129
0.100331
0.0995049
0.098638
0.0977356
0.0967954
0.095818
0.0948041
0.0937633
0.0927019
0.0916759
0.0908489
0.0906668
0.0924661
0.115819
0.115718
0.115552
0.115326
0.115045
0.114713
0.114335
0.113916
0.113458
0.112967
0.112447
0.111901
0.111333
0.110742
0.110132
0.10951
0.108877
0.108232
0.107579
0.106916
0.106245
0.105566
0.104878
0.10418
0.103469
0.102744
0.102002
0.101237
0.100444
0.0996098
0.0987398
0.0978311
0.0968838
0.0958978
0.0948804
0.0938368
0.0928198
0.0919881
0.0917875
0.0935886
0.116124
0.116027
0.115866
0.115646
0.115373
0.115052
0.114686
0.11428
0.113838
0.113365
0.112863
0.112339
0.111792
0.111225
0.110641
0.110046
0.10944
0.108825
0.108202
0.107569
0.10693
0.106283
0.105627
0.104962
0.104284
0.103592
0.102883
0.10215
0.10139
0.100589
0.0997506
0.098873
0.0979554
0.0969976
0.0960028
0.0949763
0.0939675
0.0931296
0.0929055
0.0946954
0.116428
0.116334
0.116178
0.115965
0.115701
0.115391
0.115037
0.114646
0.11422
0.113764
0.113282
0.112779
0.112256
0.111713
0.111156
0.110588
0.110011
0.109426
0.108833
0.108232
0.107626
0.107011
0.106388
0.105756
0.105111
0.104453
0.103776
0.103077
0.102348
0.101579
0.100773
0.0999259
0.0990376
0.0981092
0.0971348
0.0961243
0.0951231
0.0942775
0.0940252
0.0957908
0.116732
0.116641
0.11649
0.116285
0.11603
0.115731
0.11539
0.115014
0.114605
0.114168
0.113707
0.113226
0.112727
0.11221
0.11168
0.111141
0.110594
0.110039
0.109478
0.10891
0.108336
0.107756
0.107166
0.106568
0.105956
0.105331
0.104687
0.10402
0.103324
0.102587
0.101812
0.100995
0.100134
0.0992317
0.0982788
0.0972845
0.0962904
0.0954359
0.0951509
0.0968788
0.117038
0.116951
0.116805
0.116607
0.116362
0.116074
0.115748
0.115387
0.114996
0.114579
0.11414
0.113682
0.113209
0.112719
0.112218
0.111709
0.111193
0.11067
0.110142
0.109608
0.109068
0.108521
0.107966
0.107402
0.106824
0.106232
0.105621
0.104986
0.104322
0.103617
0.102872
0.102083
0.101249
0.100371
0.099439
0.0984604
0.0974731
0.0966088
0.0962871
0.0979641
0.117348
0.117265
0.117125
0.116936
0.116701
0.116425
0.116114
0.11577
0.115398
0.115002
0.114586
0.114154
0.113706
0.113246
0.112774
0.112297
0.111813
0.111324
0.11083
0.11033
0.109825
0.109313
0.108793
0.108263
0.107719
0.10716
0.106582
0.105979
0.105347
0.104673
0.103957
0.103195
0.102387
0.101531
0.100619
0.0996556
0.0986744
0.0977996
0.0974379
0.0990508
0.117667
0.117587
0.117454
0.117273
0.117049
0.116788
0.116492
0.116166
0.115815
0.115442
0.11505
0.114645
0.114226
0.113795
0.113356
0.112911
0.112461
0.112007
0.111548
0.111083
0.110614
0.110137
0.109652
0.109156
0.108646
0.10812
0.107574
0.107002
0.1064
0.105759
0.10507
0.104334
0.103549
0.102715
0.101822
0.100873
0.0998969
0.0990115
0.0986069
0.100143
0.117998
0.117922
0.117796
0.117624
0.117413
0.117166
0.116888
0.116582
0.116253
0.115904
0.115539
0.115162
0.114773
0.114374
0.113968
0.113557
0.113142
0.112723
0.1123
0.111872
0.111438
0.110997
0.110546
0.110085
0.109608
0.109114
0.108599
0.108058
0.107485
0.106873
0.10621
0.105499
0.104738
0.103923
0.103048
0.102113
0.101144
0.100247
0.0997974
0.101245
0.118346
0.118275
0.118157
0.117996
0.117798
0.117567
0.117307
0.117023
0.116718
0.116395
0.116058
0.115711
0.115354
0.114989
0.114617
0.114241
0.113862
0.113479
0.113093
0.1127
0.112302
0.111896
0.11148
0.111051
0.110607
0.110144
0.109659
0.109147
0.108602
0.108017
0.10738
0.106693
0.105954
0.105157
0.1043
0.103379
0.102416
0.101508
0.101012
0.10236
0.11872
0.118654
0.118544
0.118394
0.118211
0.117998
0.117758
0.117497
0.117217
0.116923
0.116616
0.1163
0.115976
0.115645
0.115308
0.114969
0.114626
0.114279
0.113928
0.113572
0.113208
0.112837
0.112454
0.112057
0.111644
0.111211
0.110754
0.110269
0.109751
0.109191
0.108579
0.107915
0.107197
0.106418
0.105577
0.104669
0.103712
0.102795
0.102251
0.10349
0.119126
0.119066
0.118964
0.118828
0.11866
0.118466
0.118248
0.118012
0.117759
0.117493
0.117218
0.116934
0.116644
0.116348
0.116047
0.115744
0.115437
0.115126
0.11481
0.114488
0.114158
0.113819
0.113468
0.113102
0.112718
0.112313
0.111883
0.111423
0.110929
0.110393
0.109804
0.109163
0.108464
0.107704
0.106877
0.105982
0.105034
0.104107
0.103516
0.104637
0.119574
0.11952
0.119428
0.119305
0.119154
0.11898
0.118786
0.118575
0.11835
0.118114
0.11787
0.11762
0.117364
0.117103
0.116837
0.116568
0.116296
0.116019
0.115737
0.115448
0.11515
0.114842
0.11452
0.114182
0.113825
0.113446
0.113041
0.112605
0.112134
0.11162
0.111053
0.110433
0.109754
0.10901
0.108199
0.107317
0.106379
0.105443
0.104804
0.105802
0.120073
0.120024
0.119943
0.119834
0.119701
0.119548
0.119377
0.119192
0.118996
0.118791
0.118578
0.118361
0.118138
0.11791
0.117678
0.117443
0.117204
0.116959
0.116709
0.116449
0.116181
0.115901
0.115606
0.115294
0.114962
0.114606
0.114224
0.11381
0.113359
0.112867
0.112321
0.11172
0.111059
0.110333
0.109537
0.108668
0.10774
0.106797
0.106114
0.106984
0.120629
0.120587
0.120516
0.120422
0.120307
0.120175
0.120028
0.119869
0.119701
0.119525
0.119343
0.119157
0.118966
0.11877
0.118569
0.118365
0.118157
0.117942
0.117719
0.117488
0.117246
0.116991
0.11672
0.116431
0.116121
0.115787
0.115425
0.115031
0.1146
0.114127
0.113603
0.113019
0.112376
0.111667
0.110886
0.110032
0.109112
0.108166