/*--------------------------------*- C++ -*----------------------------------*\
| =========                 |                                                 |
| \\      /  F ield         | OpenFOAM: The Open Source CFD Toolbox           |
|  \\    /   O peration     | Version:  5.x                                   |
|   \\  /    A nd           | Web:      www.OpenFOAM.org                      |
|    \\/     M anipulation  |                                                 |
\*---------------------------------------------------------------------------*/
FoamFile
{
    version     2.0;
    format      ascii;
    class       volScalarField;
    location    "100";
    object      p;
}
// * * * * * * * * * * * * * * * * * * * * * * * * * * * * * * * * * * * * * //

dimensions      [0 2 -2 0 0 0 0];

internalField   nonuniform List<scalar> 
26000
(
-0.000232888
-0.0694669
-0.424324
-0.826889
-1.17855
-1.47038
-1.71052
-1.91615
-2.08057
-2.21941
-2.33601
-2.43401
-2.52755
-2.5864
-2.65184
-2.71761
-2.76735
-2.8096
-2.84597
-2.87896
-2.90789
-2.93231
-2.95398
-2.97247
-2.98845
-3.00249
-3.01436
-3.02459
-3.03291
-3.03939
-3.04476
-3.04865
-3.05157
-3.0531
-3.05372
-3.0534
-3.05211
-3.04967
-3.04747
-3.03799
-0.74645
-0.560026
-0.565374
-0.705286
-0.92182
-1.16765
-1.41383
-1.64039
-1.84039
-2.01001
-2.15444
-2.27344
-2.38239
-2.47309
-2.55155
-2.62172
-2.68361
-2.73631
-2.78116
-2.82109
-2.85543
-2.88556
-2.91173
-2.93433
-2.95419
-2.9712
-2.98601
-2.99854
-3.00905
-3.01758
-3.02461
-3.0302
-3.03446
-3.03743
-3.0392
-3.04
-3.03986
-3.03876
-3.03703
-3.02984
-1.24918
-1.05873
-0.931467
-0.907392
-0.984431
-1.13123
-1.32065
-1.52155
-1.71797
-1.89515
-2.05059
-2.18146
-2.29671
-2.40106
-2.48869
-2.5648
-2.6322
-2.69115
-2.74112
-2.78512
-2.82336
-2.85647
-2.88555
-2.91059
-2.93249
-2.95144
-2.96777
-2.98185
-2.9937
-3.0035
-3.01159
-3.01811
-3.02324
-3.02699
-3.02952
-3.03095
-3.03143
-3.03078
-3.02928
-3.02417
-1.48184
-1.35372
-1.23435
-1.15781
-1.14755
-1.20179
-1.31405
-1.46146
-1.62821
-1.79416
-1.94927
-2.08601
-2.20711
-2.32117
-2.41878
-2.5019
-2.57484
-2.63979
-2.69534
-2.74422
-2.78664
-2.82328
-2.85564
-2.88355
-2.90797
-2.92913
-2.94733
-2.96313
-2.97651
-2.98773
-2.99702
-3.0046
-3.01067
-3.01526
-3.01857
-3.02069
-3.0218
-3.02173
-3.0208
-3.01709
-1.65642
-1.5647
-1.46755
-1.38399
-1.33485
-1.32945
-1.37573
-1.4641
-1.58654
-1.72547
-1.86727
-2.00146
-2.12302
-2.24248
-2.34777
-2.43782
-2.51612
-2.58661
-2.64749
-2.70127
-2.74804
-2.78836
-2.82413
-2.85503
-2.8821
-2.9056
-2.92578
-2.94342
-2.95841
-2.97112
-2.98174
-2.99048
-2.99758
-3.00307
-3.00719
-3.01003
-3.01178
-3.01234
-3.01194
-3.00935
-1.79362
-1.72499
-1.648
-1.57276
-1.51279
-1.47768
-1.4798
-1.51893
-1.59523
-1.69839
-1.81585
-1.93803
-2.05269
-2.17151
-2.28004
-2.37519
-2.45801
-2.53333
-2.59898
-2.65734
-2.7084
-2.75241
-2.79164
-2.82558
-2.85534
-2.88126
-2.90351
-2.92304
-2.93968
-2.95391
-2.96591
-2.97586
-2.98407
-2.99052
-2.99552
-2.99909
-3.00152
-3.00271
-3.00286
-3.00123
-1.90186
-1.84908
-1.78846
-1.7254
-1.66775
-1.62234
-1.60033
-1.60548
-1.64303
-1.71002
-1.79765
-1.90051
-2.00135
-2.11312
-2.21965
-2.31681
-2.40237
-2.48133
-2.55085
-2.61316
-2.66821
-2.71575
-2.75836
-2.79531
-2.82778
-2.8562
-2.88058
-2.90206
-2.9204
-2.93619
-2.94958
-2.96078
-2.97013
-2.97759
-2.98352
-2.98788
-2.991
-2.99285
-2.99358
-2.99277
-1.98945
-1.94796
-1.89979
-1.84812
-1.79737
-1.75171
-1.71945
-1.70489
-1.7148
-1.75128
-1.80951
-1.88967
-1.97207
-2.07124
-2.17051
-2.26574
-2.3513
-2.43212
-2.50427
-2.56965
-2.62814
-2.67886
-2.72464
-2.76448
-2.79961
-2.8305
-2.85703
-2.88051
-2.90061
-2.91799
-2.93281
-2.94528
-2.95578
-2.96429
-2.97117
-2.97638
-2.98023
-2.98275
-2.98409
-2.98402
-2.06191
-2.02868
-1.98989
-1.94768
-1.90455
-1.86294
-1.82843
-1.8045
-1.79733
-1.81138
-1.84474
-1.90255
-1.96492
-2.0478
-2.13539
-2.22476
-2.30721
-2.3876
-2.46076
-2.52795
-2.58904
-2.64236
-2.69095
-2.73347
-2.77111
-2.80439
-2.83303
-2.85848
-2.88035
-2.89935
-2.91564
-2.9294
-2.94108
-2.95064
-2.95849
-2.96457
-2.9692
-2.97242
-2.9744
-2.97502
-2.12272
-2.0957
-2.06408
-2.02944
-1.99325
-1.95694
-1.92413
-1.89723
-1.88105
-1.88047
-1.89515
-1.93356
-1.97709
-2.04236
-2.11555
-2.19585
-2.27221
-2.3496
-2.42181
-2.48929
-2.5519
-2.60705
-2.65788
-2.7027
-2.74261
-2.77812
-2.80878
-2.83616
-2.85975
-2.88036
-2.89811
-2.9132
-2.92607
-2.9367
-2.94553
-2.9525
-2.95793
-2.96187
-2.96451
-2.9658
-2.17438
-2.15212
-2.12605
-2.09743
-2.06715
-2.03608
-2.00654
-1.98012
-1.96022
-1.9512
-1.95327
-1.9764
-2.00405
-2.05257
-2.11055
-2.17969
-2.24758
-2.3196
-2.38885
-2.45493
-2.51776
-2.57375
-2.6261
-2.67271
-2.7145
-2.752
-2.7845
-2.8137
-2.83896
-2.86112
-2.88031
-2.89671
-2.9108
-2.9225
-2.93232
-2.94018
-2.94643
-2.95111
-2.95444
-2.95637
-2.21874
-2.20019
-2.17848
-2.15466
-2.12928
-2.10289
-2.07701
-2.05266
-2.03213
-2.01896
-2.01338
-2.0254
-2.04085
-2.07488
-2.11844
-2.17563
-2.23368
-2.29848
-2.36293
-2.42593
-2.48758
-2.5433
-2.59629
-2.64404
-2.68723
-2.72638
-2.76049
-2.79133
-2.81814
-2.84178
-2.86236
-2.88004
-2.89531
-2.9081
-2.9189
-2.92766
-2.93474
-2.94017
-2.94421
-2.94677
-2.25719
-2.24158
-2.22333
-2.20334
-2.18198
-2.15961
-2.13724
-2.11552
-2.09597
-2.08133
-2.07167
-2.07615
-2.08294
-2.10537
-2.13642
-2.18204
-2.2299
-2.28634
-2.34458
-2.40306
-2.46216
-2.51646
-2.56912
-2.61727
-2.66127
-2.70163
-2.73703
-2.76929
-2.79748
-2.82249
-2.84437
-2.86328
-2.8797
-2.89354
-2.90532
-2.91498
-2.92288
-2.92907
-2.93383
-2.93702
-2.29081
-2.27754
-2.26208
-2.24518
-2.22711
-2.20812
-2.18887
-2.16983
-2.15199
-2.13741
-2.12601
-2.12571
-2.12678
-2.14051
-2.16145
-2.19668
-2.23485
-2.28257
-2.33377
-2.38664
-2.44201
-2.49382
-2.54518
-2.59293
-2.63709
-2.67814
-2.71445
-2.74784
-2.7772
-2.80341
-2.82649
-2.84654
-2.86405
-2.87891
-2.89165
-2.90218
-2.9109
-2.91784
-2.92332
-2.92714
-2.32042
-2.30907
-2.29586
-2.28148
-2.26611
-2.24993
-2.23339
-2.21684
-2.20092
-2.18718
-2.17546
-2.17233
-2.16992
-2.17746
-2.19072
-2.21716
-2.2467
-2.28603
-2.32993
-2.37658
-2.42732
-2.47574
-2.5249
-2.57145
-2.6151
-2.65629
-2.69307
-2.72723
-2.75751
-2.78473
-2.80885
-2.82993
-2.84846
-2.86428
-2.87794
-2.88933
-2.89884
-2.90652
-2.91273
-2.91717
-2.34669
-2.3369
-2.32554
-2.31323
-2.30008
-2.28625
-2.27202
-2.25769
-2.24365
-2.23111
-2.21984
-2.2152
-2.21084
-2.21419
-2.22191
-2.24127
-2.26356
-2.29526
-2.33211
-2.37239
-2.41794
-2.46232
-2.50852
-2.55315
-2.59563
-2.6364
-2.67317
-2.70773
-2.73863
-2.76663
-2.79161
-2.81359
-2.83303
-2.84974
-2.86426
-2.87647
-2.88675
-2.89515
-2.90208
-2.90713
-2.37015
-2.36164
-2.35182
-2.34122
-2.32991
-2.31802
-2.30576
-2.29335
-2.28106
-2.26981
-2.25938
-2.25406
-2.24879
-2.24943
-2.25333
-2.26719
-2.28366
-2.30876
-2.33915
-2.3733
-2.41345
-2.45341
-2.49609
-2.53819
-2.57892
-2.61871
-2.65502
-2.68957
-2.72077
-2.74928
-2.77493
-2.79765
-2.81788
-2.83538
-2.8507
-2.86367
-2.87469
-2.88378
-2.8914
-2.89707
-2.3912
-2.38378
-2.37524
-2.36605
-2.35628
-2.34602
-2.33542
-2.32466
-2.31393
-2.30394
-2.29449
-2.28901
-2.28346
-2.28243
-2.28382
-2.29356
-2.30552
-2.32513
-2.34984
-2.37836
-2.41322
-2.44864
-2.48746
-2.52658
-2.56507
-2.60338
-2.6388
-2.67294
-2.7041
-2.73285
-2.75894
-2.78222
-2.80311
-2.8213
-2.83732
-2.85099
-2.8627
-2.87246
-2.88075
-2.887
-2.4102
-2.4037
-2.39623
-2.38824
-2.37975
-2.37085
-2.36166
-2.35231
-2.34294
-2.33412
-2.32567
-2.32032
-2.31487
-2.31288
-2.31269
-2.3194
-2.32796
-2.34315
-2.36306
-2.38661
-2.4165
-2.44749
-2.48231
-2.51818
-2.55408
-2.5905
-2.62463
-2.65798
-2.68879
-2.71749
-2.74378
-2.76743
-2.78882
-2.80757
-2.82421
-2.83851
-2.85085
-2.86122
-2.87015
-2.87697
-2.42742
-2.4217
-2.41515
-2.40816
-2.40076
-2.39302
-2.38501
-2.37687
-2.36868
-2.3609
-2.35341
-2.34835
-2.3432
-2.34071
-2.33958
-2.34411
-2.35018
-2.36189
-2.37782
-2.39714
-2.42252
-2.44936
-2.48025
-2.51274
-2.54582
-2.58004
-2.61255
-2.64479
-2.67493
-2.70331
-2.72957
-2.75339
-2.7751
-2.7943
-2.81144
-2.82629
-2.8392
-2.85013
-2.85964
-2.86701
-2.44309
-2.43805
-2.43227
-2.42615
-2.41966
-2.4129
-2.4059
-2.39879
-2.39163
-2.38478
-2.37815
-2.37347
-2.36872
-2.36602
-2.36438
-2.36736
-2.37162
-2.38063
-2.39337
-2.40914
-2.43056
-2.45363
-2.48077
-2.50992
-2.54009
-2.57189
-2.60256
-2.6334
-2.6626
-2.6904
-2.71639
-2.74018
-2.76206
-2.78155
-2.79909
-2.81438
-2.82778
-2.83924
-2.84928
-2.85717
-2.45741
-2.45294
-2.44785
-2.44246
-2.43676
-2.43083
-2.4247
-2.41847
-2.41219
-2.40616
-2.40031
-2.39602
-2.3917
-2.38898
-2.38709
-2.38899
-2.39197
-2.39892
-2.4091
-2.42198
-2.43998
-2.45971
-2.48341
-2.50934
-2.53662
-2.56591
-2.59455
-2.62378
-2.6518
-2.6788
-2.70431
-2.72788
-2.74975
-2.76939
-2.7872
-2.80285
-2.81667
-2.82857
-2.83911
-2.84747
-2.47053
-2.46657
-2.46206
-2.4573
-2.45228
-2.44707
-2.44168
-2.43621
-2.43069
-2.42538
-2.42021
-2.41632
-2.41242
-2.40979
-2.40783
-2.40898
-2.41104
-2.41643
-2.4246
-2.43514
-2.45025
-2.46708
-2.48767
-2.51061
-2.53511
-2.56186
-2.5884
-2.61586
-2.64254
-2.66853
-2.69337
-2.71654
-2.73824
-2.75789
-2.77585
-2.79176
-2.80591
-2.81819
-2.82915
-2.83795
-2.48258
-2.47906
-2.47506
-2.47086
-2.46642
-2.46183
-2.45709
-2.45227
-2.44741
-2.44272
-2.43817
-2.43464
-2.43116
-2.42867
-2.42675
-2.42738
-2.4288
-2.43301
-2.4396
-2.44827
-2.46095
-2.47531
-2.49315
-2.51335
-2.53523
-2.5595
-2.58392
-2.60953
-2.63473
-2.65957
-2.68358
-2.70619
-2.72757
-2.74709
-2.76508
-2.78114
-2.79553
-2.80813
-2.81945
-2.82865
-2.49367
-2.49054
-2.48699
-2.48327
-2.47935
-2.47529
-2.47111
-2.46686
-2.46258
-2.45843
-2.45441
-2.45124
-2.44813
-2.44583
-2.44399
-2.44427
-2.44526
-2.44857
-2.45393
-2.46109
-2.47177
-2.48403
-2.49947
-2.51721
-2.53669
-2.5586
-2.58094
-2.60467
-2.62831
-2.65188
-2.67492
-2.69684
-2.71775
-2.73702
-2.75493
-2.77104
-2.78559
-2.79842
-2.81005
-2.81959
-2.5039
-2.50112
-2.49796
-2.49467
-2.49119
-2.48761
-2.48391
-2.48016
-2.47638
-2.47271
-2.46916
-2.46631
-2.46355
-2.46143
-2.45972
-2.45977
-2.46045
-2.46308
-2.46748
-2.47345
-2.48247
-2.49297
-2.50634
-2.52191
-2.5392
-2.55889
-2.57924
-2.6011
-2.62316
-2.64539
-2.66736
-2.68847
-2.7088
-2.72771
-2.74542
-2.76149
-2.77611
-2.78911
-2.80096
-2.81079
-2.51336
-2.51089
-2.50808
-2.50515
-2.50207
-2.4989
-2.49563
-2.49231
-2.48897
-2.48573
-2.48259
-2.48004
-2.47759
-2.47566
-2.47409
-2.47399
-2.47446
-2.47658
-2.48021
-2.48524
-2.49289
-2.50192
-2.51352
-2.52717
-2.5425
-2.56017
-2.57863
-2.59869
-2.61916
-2.64002
-2.66084
-2.68105
-2.70071
-2.71915
-2.73657
-2.7525
-2.76711
-2.7802
-2.79222
-2.80229
-2.52211
-2.51991
-2.51742
-2.51482
-2.51209
-2.50928
-2.50638
-2.50345
-2.5005
-2.49762
-2.49485
-2.49257
-2.4904
-2.48866
-2.48724
-2.48704
-2.48738
-2.4891
-2.49214
-2.4964
-2.50293
-2.51073
-2.52082
-2.5328
-2.5464
-2.56221
-2.57893
-2.59727
-2.61619
-2.63566
-2.6553
-2.67456
-2.69346
-2.71135
-2.72838
-2.74409
-2.75861
-2.77173
-2.78385
-2.7941
-2.53023
-2.52827
-2.52605
-2.52374
-2.52132
-2.51883
-2.51627
-2.51367
-2.51106
-2.50852
-2.50608
-2.50403
-2.50212
-2.50055
-2.49928
-2.49904
-2.49928
-2.5007
-2.50327
-2.50692
-2.51253
-2.5193
-2.52809
-2.53864
-2.5507
-2.56485
-2.57996
-2.59668
-2.61411
-2.63222
-2.65067
-2.66893
-2.68701
-2.70428
-2.72086
-2.73627
-2.75063
-2.7637
-2.77586
-2.78625
-2.53775
-2.53601
-2.53404
-2.532
-2.52985
-2.52765
-2.52538
-2.52308
-2.52077
-2.51852
-2.51636
-2.51455
-2.51286
-2.51146
-2.51033
-2.51006
-2.51025
-2.51144
-2.51364
-2.51679
-2.52164
-2.52755
-2.53525
-2.54455
-2.55527
-2.56792
-2.58157
-2.59679
-2.61281
-2.6296
-2.64686
-2.6641
-2.68132
-2.69792
-2.71398
-2.72903
-2.74316
-2.75613
-2.76826
-2.77872
-2.54474
-2.5432
-2.54145
-2.53964
-2.53774
-2.53579
-2.53378
-2.53175
-2.52971
-2.52772
-2.52582
-2.5242
-2.52272
-2.52148
-2.52047
-2.52021
-2.52037
-2.52139
-2.52329
-2.52603
-2.53025
-2.53544
-2.54221
-2.55044
-2.55998
-2.57131
-2.58363
-2.59747
-2.61216
-2.62769
-2.64379
-2.66001
-2.67635
-2.69223
-2.70772
-2.72236
-2.7362
-2.74901
-2.76106
-2.77155
-2.55124
-2.54988
-2.54833
-2.54672
-2.54504
-2.54331
-2.54154
-2.53974
-2.53794
-2.53619
-2.53451
-2.53308
-2.53179
-2.53069
-2.52981
-2.52956
-2.52971
-2.53059
-2.53225
-2.53467
-2.53836
-2.54294
-2.54893
-2.55623
-2.56475
-2.5749
-2.58603
-2.5986
-2.61206
-2.62639
-2.64137
-2.65659
-2.67203
-2.68718
-2.70206
-2.71624
-2.72975
-2.74234
-2.75425
-2.76472
-2.55729
-2.55608
-2.55471
-2.55329
-2.55181
-2.55028
-2.54872
-2.54713
-2.54554
-2.544
-2.54253
-2.54126
-2.54013
-2.53917
-2.53841
-2.53819
-2.53833
-2.53912
-2.54058
-2.54272
-2.54598
-2.55005
-2.55536
-2.56186
-2.56949
-2.5786
-2.58867
-2.60009
-2.61241
-2.62562
-2.63952
-2.65376
-2.66832
-2.68272
-2.69697
-2.71066
-2.72378
-2.73611
-2.74785
-2.75825
-2.56292
-2.56186
-2.56065
-2.5594
-2.55809
-2.55674
-2.55536
-2.55396
-2.55257
-2.55121
-2.54992
-2.54881
-2.54783
-2.54699
-2.54634
-2.54615
-2.5463
-2.54701
-2.54832
-2.55024
-2.55313
-2.55677
-2.5615
-2.56731
-2.57416
-2.58235
-2.59147
-2.60185
-2.61312
-2.62528
-2.63817
-2.65147
-2.66516
-2.6788
-2.69241
-2.70557
-2.71828
-2.73031
-2.74182
-2.75211
-2.56817
-2.56724
-2.56617
-2.56507
-2.56391
-2.56273
-2.56152
-2.56029
-2.55907
-2.55787
-2.55675
-2.55578
-2.55493
-2.55421
-2.55365
-2.5535
-2.55366
-2.55431
-2.5555
-2.55723
-2.55982
-2.56309
-2.56733
-2.57254
-2.57871
-2.5861
-2.59436
-2.60381
-2.61412
-2.62531
-2.63725
-2.64964
-2.66249
-2.67539
-2.68834
-2.70096
-2.71323
-2.72492
-2.73618
-2.74631
-2.57306
-2.57225
-2.57131
-2.57035
-2.56933
-2.5683
-2.56723
-2.56615
-2.56508
-2.56404
-2.56307
-2.56222
-2.56149
-2.56087
-2.56041
-2.5603
-2.56048
-2.56108
-2.56217
-2.56375
-2.56608
-2.56903
-2.57285
-2.57755
-2.58311
-2.58979
-2.5973
-2.6059
-2.61535
-2.62564
-2.63668
-2.64822
-2.66026
-2.67242
-2.68472
-2.69679
-2.7086
-2.71993
-2.73089
-2.74083
-2.57763
-2.57692
-2.5761
-2.57526
-2.57437
-2.57346
-2.57253
-2.57159
-2.57066
-2.56975
-2.56891
-2.56818
-2.56756
-2.56704
-2.56666
-2.56658
-2.56678
-2.56736
-2.56836
-2.56981
-2.57192
-2.5746
-2.57805
-2.5823
-2.58735
-2.5934
-2.60024
-2.60808
-2.61673
-2.62621
-2.63641
-2.64715
-2.65841
-2.66986
-2.68151
-2.69302
-2.70436
-2.71531
-2.72595
-2.73567
-2.58189
-2.58128
-2.58056
-2.57983
-2.57906
-2.57827
-2.57746
-2.57664
-2.57583
-2.57505
-2.57432
-2.57369
-2.57318
-2.57274
-2.57244
-2.5724
-2.57262
-2.57317
-2.57411
-2.57545
-2.57737
-2.57982
-2.58296
-2.58682
-2.59141
-2.5969
-2.60314
-2.6103
-2.61824
-2.62696
-2.63639
-2.64638
-2.65689
-2.66766
-2.67867
-2.68963
-2.70048
-2.71103
-2.72133
-2.7308
-2.58587
-2.58534
-2.58473
-2.58409
-2.58342
-2.58274
-2.58204
-2.58133
-2.58063
-2.57996
-2.57934
-2.5788
-2.57837
-2.57802
-2.57779
-2.57779
-2.57803
-2.57856
-2.57944
-2.58069
-2.58246
-2.5847
-2.58757
-2.59109
-2.59527
-2.60028
-2.60598
-2.61253
-2.61982
-2.62785
-2.63658
-2.64585
-2.65567
-2.66578
-2.67617
-2.68658
-2.69694
-2.70708
-2.71702
-2.72621
-2.5896
-2.58914
-2.58861
-2.58807
-2.58749
-2.5869
-2.5863
-2.58569
-2.58509
-2.58452
-2.58399
-2.58354
-2.58319
-2.58291
-2.58274
-2.58278
-2.58304
-2.58356
-2.58439
-2.58556
-2.58719
-2.58926
-2.59189
-2.59511
-2.59894
-2.60352
-2.60874
-2.61474
-2.62144
-2.62884
-2.63691
-2.64553
-2.65469
-2.66418
-2.67397
-2.68383
-2.69371
-2.70342
-2.71299
-2.72188
-2.59307
-2.59269
-2.59224
-2.59177
-2.59128
-2.59078
-2.59026
-2.58974
-2.58923
-2.58875
-2.58831
-2.58794
-2.58766
-2.58744
-2.58733
-2.5874
-2.58768
-2.58819
-2.58899
-2.59009
-2.59161
-2.59352
-2.59594
-2.5989
-2.60242
-2.60661
-2.6114
-2.61691
-2.62308
-2.62991
-2.63738
-2.64538
-2.65392
-2.66281
-2.67203
-2.68136
-2.69076
-2.70004
-2.70922
-2.7178
-2.59633
-2.59601
-2.59563
-2.59523
-2.59481
-2.59439
-2.59395
-2.59351
-2.59308
-2.59268
-2.59231
-2.59201
-2.5918
-2.59164
-2.59158
-2.59169
-2.59198
-2.59249
-2.59326
-2.5943
-2.59571
-2.5975
-2.59973
-2.60246
-2.60569
-2.60954
-2.61395
-2.61903
-2.62471
-2.63102
-2.63793
-2.64537
-2.65333
-2.66165
-2.67032
-2.67914
-2.68805
-2.69691
-2.7057
-2.71394
-2.59937
-2.59911
-2.59879
-2.59846
-2.59811
-2.59775
-2.59739
-2.59702
-2.59667
-2.59633
-2.59603
-2.5958
-2.59564
-2.59554
-2.59553
-2.59566
-2.59597
-2.59647
-2.59721
-2.59821
-2.59953
-2.6012
-2.60327
-2.60579
-2.60878
-2.61233
-2.61639
-2.62107
-2.62631
-2.63214
-2.63855
-2.64546
-2.65288
-2.66067
-2.6688
-2.67712
-2.68557
-2.694
-2.70239
-2.7103
-2.60222
-2.60201
-2.60175
-2.60148
-2.60119
-2.60089
-2.60059
-2.60029
-2.6
-2.59972
-2.59949
-2.59931
-2.59921
-2.59915
-2.59918
-2.59935
-2.59967
-2.60017
-2.60089
-2.60183
-2.60308
-2.60464
-2.60657
-2.60891
-2.61168
-2.61495
-2.61871
-2.62302
-2.62787
-2.63327
-2.63921
-2.64563
-2.65254
-2.65983
-2.66746
-2.6753
-2.68329
-2.69129
-2.69929
-2.70684
-2.60489
-2.60473
-2.60452
-2.6043
-2.60406
-2.60382
-2.60357
-2.60333
-2.6031
-2.60288
-2.6027
-2.60258
-2.60252
-2.6025
-2.60257
-2.60276
-2.6031
-2.6036
-2.60429
-2.6052
-2.60638
-2.60785
-2.60965
-2.61182
-2.6144
-2.61743
-2.6209
-2.62489
-2.62938
-2.63438
-2.63989
-2.64586
-2.6523
-2.65911
-2.66626
-2.67364
-2.68118
-2.68877
-2.69637
-2.70357
-2.60739
-2.60727
-2.6071
-2.60693
-2.60674
-2.60655
-2.60635
-2.60616
-2.60598
-2.60582
-2.60569
-2.60561
-2.60559
-2.60562
-2.60572
-2.60593
-2.60628
-2.60677
-2.60745
-2.60832
-2.60944
-2.61082
-2.61251
-2.61454
-2.61693
-2.61975
-2.62297
-2.62667
-2.63082
-2.63546
-2.64057
-2.64613
-2.65213
-2.65849
-2.66519
-2.67212
-2.67924
-2.68641
-2.69361
-2.70046
-2.60974
-2.60965
-2.60952
-2.60939
-2.60924
-2.6091
-2.60895
-2.6088
-2.60867
-2.60855
-2.60847
-2.60842
-2.60844
-2.6085
-2.60864
-2.60887
-2.60923
-2.60972
-2.61038
-2.61122
-2.61228
-2.61359
-2.61518
-2.61707
-2.6193
-2.62192
-2.62492
-2.62834
-2.6322
-2.6365
-2.64125
-2.64642
-2.65201
-2.65795
-2.66422
-2.67073
-2.67743
-2.6842
-2.69101
-2.69749
-2.61193
-2.61187
-2.61178
-2.61169
-2.61158
-2.61147
-2.61137
-2.61126
-2.61117
-2.61109
-2.61105
-2.61104
-2.61109
-2.61118
-2.61134
-2.61159
-2.61196
-2.61245
-2.61309
-2.6139
-2.61492
-2.61615
-2.61765
-2.61943
-2.62151
-2.62395
-2.62674
-2.62992
-2.63351
-2.6375
-2.64192
-2.64673
-2.65193
-2.65748
-2.66334
-2.66944
-2.67573
-2.68211
-2.68854
-2.69467
-2.61399
-2.61396
-2.6139
-2.61384
-2.61377
-2.61369
-2.61362
-2.61355
-2.6135
-2.61346
-2.61345
-2.61347
-2.61355
-2.61367
-2.61385
-2.61411
-2.61449
-2.61498
-2.6156
-2.61639
-2.61736
-2.61853
-2.61994
-2.62161
-2.62356
-2.62584
-2.62844
-2.6314
-2.63473
-2.63845
-2.64255
-2.64703
-2.65188
-2.65706
-2.66254
-2.66825
-2.67415
-2.68015
-2.6862
-2.69197
-2.61592
-2.61591
-2.61589
-2.61585
-2.61581
-2.61577
-2.61573
-2.61569
-2.61567
-2.61566
-2.61568
-2.61573
-2.61584
-2.61598
-2.61618
-2.61645
-2.61684
-2.61732
-2.61793
-2.61869
-2.61961
-2.62073
-2.62206
-2.62363
-2.62547
-2.62759
-2.63002
-2.63278
-2.63588
-2.63934
-2.64316
-2.64733
-2.65185
-2.65667
-2.66179
-2.66713
-2.67266
-2.67829
-2.68397
-2.68939
-2.61773
-2.61775
-2.61774
-2.61773
-2.61772
-2.6177
-2.61769
-2.61768
-2.61769
-2.61771
-2.61775
-2.61783
-2.61796
-2.61812
-2.61834
-2.61862
-2.61901
-2.61949
-2.62009
-2.62082
-2.62171
-2.62277
-2.62403
-2.62551
-2.62723
-2.62922
-2.63149
-2.63406
-2.63695
-2.64017
-2.64373
-2.64761
-2.65182
-2.65632
-2.66109
-2.66608
-2.67125
-2.67652
-2.68184
-2.68692
-2.61942
-2.61946
-2.61948
-2.61949
-2.6195
-2.61951
-2.61952
-2.61954
-2.61957
-2.61961
-2.61968
-2.61978
-2.61993
-2.62011
-2.62034
-2.62063
-2.62102
-2.62149
-2.62208
-2.62279
-2.62364
-2.62465
-2.62585
-2.62724
-2.62886
-2.63073
-2.63285
-2.63525
-2.63795
-2.64095
-2.64426
-2.64787
-2.65179
-2.65598
-2.66043
-2.66509
-2.66992
-2.67484
-2.67981
-2.68456
-2.62102
-2.62107
-2.62111
-2.62114
-2.62117
-2.6212
-2.62123
-2.62127
-2.62132
-2.62139
-2.62148
-2.6216
-2.62176
-2.62195
-2.62219
-2.6225
-2.62288
-2.62335
-2.62392
-2.62461
-2.62542
-2.62639
-2.62753
-2.62885
-2.63037
-2.63212
-2.6341
-2.63635
-2.63887
-2.64166
-2.64475
-2.64811
-2.65176
-2.65566
-2.65981
-2.66415
-2.66865
-2.67324
-2.67787
-2.68229
-2.62251
-2.62258
-2.62263
-2.62268
-2.62273
-2.62278
-2.62283
-2.62289
-2.62296
-2.62304
-2.62315
-2.62328
-2.62346
-2.62366
-2.62391
-2.62422
-2.62461
-2.62507
-2.62563
-2.62629
-2.62707
-2.628
-2.62907
-2.63032
-2.63176
-2.6334
-2.63526
-2.63736
-2.63971
-2.64232
-2.64519
-2.64833
-2.65172
-2.65535
-2.65921
-2.66325
-2.66744
-2.67171
-2.67602
-2.68012
-2.62392
-2.624
-2.62406
-2.62413
-2.62419
-2.62425
-2.62432
-2.62439
-2.62448
-2.62458
-2.6247
-2.62485
-2.62503
-2.62525
-2.62551
-2.62582
-2.6262
-2.62666
-2.6272
-2.62784
-2.62859
-2.62948
-2.6305
-2.63168
-2.63303
-2.63458
-2.63633
-2.63829
-2.64048
-2.64292
-2.64559
-2.64851
-2.65167
-2.65505
-2.65863
-2.66239
-2.66628
-2.67025
-2.67425
-2.67804
-2.62523
-2.62532
-2.6254
-2.62548
-2.62555
-2.62563
-2.62571
-2.6258
-2.6259
-2.62601
-2.62614
-2.6263
-2.6265
-2.62672
-2.62698
-2.6273
-2.62768
-2.62812
-2.62865
-2.62927
-2.63
-2.63084
-2.63181
-2.63293
-2.63421
-2.63566
-2.6373
-2.63914
-2.64119
-2.64346
-2.64595
-2.64867
-2.65161
-2.65475
-2.65808
-2.66156
-2.66517
-2.66885
-2.67255
-2.67605
-2.62647
-2.62657
-2.62666
-2.62674
-2.62683
-2.62692
-2.62701
-2.62711
-2.62722
-2.62734
-2.62749
-2.62765
-2.62785
-2.62808
-2.62835
-2.62866
-2.62904
-2.62948
-2.63
-2.63059
-2.63129
-2.6321
-2.63302
-2.63408
-2.63529
-2.63665
-2.63819
-2.63992
-2.64183
-2.64395
-2.64627
-2.6488
-2.65153
-2.65445
-2.65754
-2.66077
-2.66411
-2.66751
-2.67093
-2.67414
-2.62764
-2.62774
-2.62784
-2.62793
-2.62802
-2.62812
-2.62822
-2.62833
-2.62845
-2.62858
-2.62873
-2.62891
-2.62912
-2.62935
-2.62962
-2.62993
-2.6303
-2.63073
-2.63123
-2.63181
-2.63248
-2.63325
-2.63413
-2.63514
-2.63627
-2.63756
-2.63901
-2.64062
-2.64241
-2.64439
-2.64655
-2.64891
-2.65144
-2.65415
-2.65701
-2.66001
-2.6631
-2.66624
-2.66938
-2.67232
-2.62873
-2.62884
-2.62894
-2.62904
-2.62914
-2.62924
-2.62935
-2.62947
-2.6296
-2.62974
-2.6299
-2.63008
-2.63029
-2.63052
-2.63079
-2.6311
-2.63147
-2.63189
-2.63238
-2.63294
-2.63358
-2.63431
-2.63515
-2.6361
-2.63718
-2.63839
-2.63975
-2.64126
-2.64294
-2.64478
-2.6468
-2.64899
-2.65134
-2.65385
-2.6565
-2.65927
-2.66212
-2.66501
-2.6679
-2.67059
-2.62976
-2.62987
-2.62998
-2.63008
-2.63019
-2.6303
-2.63041
-2.63053
-2.63067
-2.63081
-2.63098
-2.63116
-2.63137
-2.63161
-2.63188
-2.63219
-2.63255
-2.63296
-2.63343
-2.63397
-2.63459
-2.63529
-2.63609
-2.63699
-2.63801
-2.63915
-2.64042
-2.64184
-2.64341
-2.64513
-2.64701
-2.64904
-2.65123
-2.65356
-2.65601
-2.65856
-2.66119
-2.66385
-2.66649
-2.66894
-2.63073
-2.63084
-2.63095
-2.63106
-2.63117
-2.63128
-2.6314
-2.63153
-2.63166
-2.63181
-2.63198
-2.63217
-2.63238
-2.63262
-2.63289
-2.63319
-2.63355
-2.63395
-2.6344
-2.63492
-2.63551
-2.63619
-2.63694
-2.6378
-2.63876
-2.63984
-2.64104
-2.64237
-2.64383
-2.64544
-2.64719
-2.64908
-2.65111
-2.65326
-2.65553
-2.65788
-2.6603
-2.66274
-2.66515
-2.66737
-2.63164
-2.63175
-2.63186
-2.63197
-2.63208
-2.6322
-2.63232
-2.63245
-2.63259
-2.63275
-2.63292
-2.63311
-2.63332
-2.63356
-2.63382
-2.63412
-2.63447
-2.63486
-2.6353
-2.6358
-2.63637
-2.63701
-2.63773
-2.63854
-2.63945
-2.64047
-2.64159
-2.64284
-2.64421
-2.64571
-2.64734
-2.64909
-2.65097
-2.65297
-2.65506
-2.65723
-2.65945
-2.66168
-2.66388
-2.66589
-2.63249
-2.63261
-2.63272
-2.63283
-2.63294
-2.63306
-2.63319
-2.63332
-2.63346
-2.63362
-2.63379
-2.63398
-2.63419
-2.63443
-2.63469
-2.63498
-2.63532
-2.6357
-2.63613
-2.63661
-2.63715
-2.63777
-2.63845
-2.63922
-2.64008
-2.64104
-2.6421
-2.64326
-2.64454
-2.64594
-2.64746
-2.64909
-2.65083
-2.65268
-2.65461
-2.65661
-2.65864
-2.66068
-2.66268
-2.66449
-2.6333
-2.63342
-2.63353
-2.63364
-2.63375
-2.63387
-2.634
-2.63413
-2.63427
-2.63443
-2.6346
-2.63479
-2.635
-2.63523
-2.63549
-2.63578
-2.63611
-2.63647
-2.63689
-2.63735
-2.63787
-2.63846
-2.63911
-2.63984
-2.64065
-2.64156
-2.64255
-2.64365
-2.64484
-2.64615
-2.64756
-2.64907
-2.65069
-2.65239
-2.65417
-2.65601
-2.65788
-2.65973
-2.66155
-2.66317
-2.63406
-2.63417
-2.63428
-2.63439
-2.63451
-2.63463
-2.63475
-2.63489
-2.63503
-2.63519
-2.63536
-2.63554
-2.63575
-2.63598
-2.63623
-2.63652
-2.63684
-2.63719
-2.63759
-2.63804
-2.63854
-2.6391
-2.63972
-2.64041
-2.64118
-2.64203
-2.64296
-2.64399
-2.64511
-2.64632
-2.64764
-2.64904
-2.65054
-2.65211
-2.65375
-2.65544
-2.65715
-2.65884
-2.66048
-2.66194
-2.63478
-2.63489
-2.635
-2.63511
-2.63522
-2.63534
-2.63546
-2.63559
-2.63574
-2.63589
-2.63606
-2.63625
-2.63645
-2.63668
-2.63692
-2.6372
-2.63751
-2.63786
-2.63824
-2.63867
-2.63915
-2.63968
-2.64027
-2.64093
-2.64165
-2.64245
-2.64333
-2.6443
-2.64534
-2.64648
-2.6477
-2.649
-2.65039
-2.65184
-2.65335
-2.6549
-2.65646
-2.658
-2.65948
-2.66079
-2.63546
-2.63556
-2.63567
-2.63578
-2.63589
-2.636
-2.63613
-2.63626
-2.6364
-2.63655
-2.63672
-2.6369
-2.6371
-2.63732
-2.63756
-2.63783
-2.63813
-2.63847
-2.63884
-2.63925
-2.63971
-2.64022
-2.64078
-2.6414
-2.64209
-2.64284
-2.64367
-2.64457
-2.64555
-2.64661
-2.64775
-2.64896
-2.65024
-2.65158
-2.65297
-2.65439
-2.65582
-2.65721
-2.65855
-2.65972
-2.63609
-2.6362
-2.6363
-2.6364
-2.63651
-2.63663
-2.63675
-2.63688
-2.63702
-2.63717
-2.63733
-2.63751
-2.63771
-2.63792
-2.63816
-2.63842
-2.63871
-2.63904
-2.63939
-2.63979
-2.64023
-2.64071
-2.64125
-2.64184
-2.64248
-2.6432
-2.64397
-2.64482
-2.64573
-2.64672
-2.64778
-2.6489
-2.65009
-2.65133
-2.65261
-2.65391
-2.65521
-2.65648
-2.65768
-2.65872
-2.6367
-2.6368
-2.6369
-2.637
-2.6371
-2.63722
-2.63733
-2.63746
-2.6376
-2.63775
-2.63791
-2.63808
-2.63827
-2.63848
-2.63871
-2.63897
-2.63925
-2.63956
-2.6399
-2.64028
-2.6407
-2.64116
-2.64167
-2.64223
-2.64285
-2.64352
-2.64425
-2.64504
-2.6459
-2.64682
-2.6478
-2.64885
-2.64994
-2.65109
-2.65226
-2.65346
-2.65464
-2.6558
-2.65688
-2.65781
-2.63726
-2.63736
-2.63746
-2.63755
-2.63766
-2.63777
-2.63788
-2.63801
-2.63814
-2.63829
-2.63844
-2.63861
-2.6388
-2.639
-2.63923
-2.63948
-2.63975
-2.64005
-2.64038
-2.64074
-2.64114
-2.64158
-2.64207
-2.6426
-2.64318
-2.64381
-2.64449
-2.64524
-2.64604
-2.6469
-2.64782
-2.64879
-2.6498
-2.65086
-2.65194
-2.65303
-2.65412
-2.65516
-2.65614
-2.65697
-2.6378
-2.63789
-2.63798
-2.63808
-2.63818
-2.63829
-2.6384
-2.63852
-2.63865
-2.63879
-2.63894
-2.63911
-2.63929
-2.63949
-2.63971
-2.63995
-2.64021
-2.6405
-2.64082
-2.64116
-2.64155
-2.64197
-2.64243
-2.64293
-2.64348
-2.64407
-2.64472
-2.64542
-2.64617
-2.64697
-2.64783
-2.64873
-2.64967
-2.65064
-2.65164
-2.65264
-2.65363
-2.65458
-2.65546
-2.6562
-2.63831
-2.63839
-2.63848
-2.63857
-2.63867
-2.63877
-2.63888
-2.639
-2.63913
-2.63926
-2.63941
-2.63958
-2.63975
-2.63994
-2.64016
-2.64039
-2.64064
-2.64092
-2.64122
-2.64156
-2.64192
-2.64232
-2.64276
-2.64324
-2.64375
-2.64432
-2.64493
-2.64558
-2.64628
-2.64703
-2.64783
-2.64867
-2.64954
-2.65044
-2.65136
-2.65228
-2.65318
-2.65405
-2.65484
-2.6555
-2.63878
-2.63887
-2.63895
-2.63904
-2.63913
-2.63923
-2.63934
-2.63945
-2.63958
-2.63971
-2.63985
-2.64001
-2.64018
-2.64037
-2.64057
-2.6408
-2.64104
-2.64131
-2.6416
-2.64192
-2.64227
-2.64265
-2.64306
-2.64352
-2.64401
-2.64454
-2.64511
-2.64573
-2.64639
-2.64709
-2.64783
-2.64861
-2.64942
-2.65025
-2.6511
-2.65194
-2.65277
-2.65356
-2.65428
-2.65487
-2.63923
-2.63931
-2.63939
-2.63948
-2.63957
-2.63966
-2.63977
-2.63988
-2.64
-2.64013
-2.64027
-2.64042
-2.64058
-2.64076
-2.64096
-2.64118
-2.64141
-2.64167
-2.64195
-2.64225
-2.64259
-2.64295
-2.64335
-2.64378
-2.64424
-2.64474
-2.64528
-2.64586
-2.64648
-2.64714
-2.64783
-2.64855
-2.6493
-2.65008
-2.65086
-2.65164
-2.6524
-2.65311
-2.65377
-2.6543
-2.63966
-2.63973
-2.63981
-2.63989
-2.63998
-2.64007
-2.64017
-2.64028
-2.64039
-2.64052
-2.64065
-2.6408
-2.64096
-2.64113
-2.64132
-2.64153
-2.64176
-2.64201
-2.64227
-2.64257
-2.64289
-2.64323
-2.64361
-2.64402
-2.64446
-2.64493
-2.64544
-2.64598
-2.64656
-2.64718
-2.64782
-2.6485
-2.6492
-2.64992
-2.65064
-2.65136
-2.65206
-2.65271
-2.65331
-2.65379
-2.64006
-2.64013
-2.6402
-2.64028
-2.64036
-2.64045
-2.64055
-2.64065
-2.64076
-2.64088
-2.64101
-2.64116
-2.64131
-2.64148
-2.64166
-2.64186
-2.64208
-2.64232
-2.64258
-2.64286
-2.64316
-2.64349
-2.64385
-2.64424
-2.64465
-2.6451
-2.64558
-2.6461
-2.64664
-2.64722
-2.64782
-2.64845
-2.6491
-2.64977
-2.65044
-2.65111
-2.65175
-2.65235
-2.6529
-2.65334
-2.64043
-2.6405
-2.64057
-2.64065
-2.64072
-2.64081
-2.6409
-2.641
-2.64111
-2.64123
-2.64135
-2.64149
-2.64164
-2.6418
-2.64198
-2.64217
-2.64238
-2.64261
-2.64286
-2.64313
-2.64342
-2.64373
-2.64407
-2.64444
-2.64484
-2.64526
-2.64571
-2.6462
-2.64671
-2.64725
-2.64782
-2.64841
-2.64902
-2.64964
-2.65026
-2.65088
-2.65148
-2.65203
-2.65253
-2.65294
-2.64079
-2.64085
-2.64092
-2.64099
-2.64107
-2.64115
-2.64124
-2.64133
-2.64144
-2.64155
-2.64167
-2.6418
-2.64195
-2.64211
-2.64228
-2.64246
-2.64266
-2.64288
-2.64312
-2.64338
-2.64365
-2.64396
-2.64428
-2.64463
-2.64501
-2.64541
-2.64584
-2.64629
-2.64678
-2.64729
-2.64782
-2.64837
-2.64894
-2.64952
-2.6501
-2.65068
-2.65123
-2.65175
-2.65221
-2.65259
-2.64112
-2.64118
-2.64124
-2.64131
-2.64138
-2.64146
-2.64155
-2.64164
-2.64174
-2.64185
-2.64197
-2.6421
-2.64224
-2.64239
-2.64255
-2.64273
-2.64293
-2.64314
-2.64336
-2.64361
-2.64388
-2.64416
-2.64447
-2.64481
-2.64516
-2.64554
-2.64595
-2.64638
-2.64684
-2.64732
-2.64782
-2.64834
-2.64888
-2.64942
-2.64996
-2.6505
-2.65102
-2.6515
-2.65193
-2.65229
-2.64143
-2.64149
-2.64155
-2.64161
-2.64168
-2.64176
-2.64184
-2.64193
-2.64203
-2.64213
-2.64225
-2.64237
-2.64251
-2.64265
-2.64281
-2.64298
-2.64317
-2.64337
-2.64359
-2.64383
-2.64408
-2.64436
-2.64465
-2.64497
-2.64531
-2.64567
-2.64606
-2.64647
-2.6469
-2.64735
-2.64783
-2.64832
-2.64882
-2.64933
-2.64984
-2.65034
-2.65083
-2.65128
-2.65169
-2.65202
-2.64172
-2.64178
-2.64184
-2.6419
-2.64197
-2.64204
-2.64212
-2.6422
-2.6423
-2.6424
-2.64251
-2.64263
-2.64276
-2.6429
-2.64305
-2.64322
-2.6434
-2.64359
-2.6438
-2.64403
-2.64427
-2.64453
-2.64482
-2.64512
-2.64544
-2.64579
-2.64616
-2.64655
-2.64696
-2.64739
-2.64784
-2.6483
-2.64877
-2.64925
-2.64974
-2.65021
-2.65067
-2.65109
-2.65148
-2.6518
-2.64199
-2.64205
-2.6421
-2.64216
-2.64223
-2.6423
-2.64237
-2.64246
-2.64255
-2.64265
-2.64275
-2.64287
-2.64299
-2.64313
-2.64328
-2.64344
-2.64361
-2.6438
-2.644
-2.64421
-2.64445
-2.6447
-2.64497
-2.64526
-2.64557
-2.6459
-2.64625
-2.64662
-2.64701
-2.64742
-2.64785
-2.64828
-2.64873
-2.64919
-2.64965
-2.6501