/*--------------------------------*- C++ -*----------------------------------*\
| =========                 |                                                 |
| \\      /  F ield         | OpenFOAM: The Open Source CFD Toolbox           |
|  \\    /   O peration     | Version:  5.x                                   |
|   \\  /    A nd           | Web:      www.OpenFOAM.org                      |
|    \\/     M anipulation  |                                                 |
\*---------------------------------------------------------------------------*/
FoamFile
{
    version     2.0;
    format      ascii;
    class       surfaceScalarField;
    location    "100";
    object      phi;
}
// * * * * * * * * * * * * * * * * * * * * * * * * * * * * * * * * * * * * * //

dimensions      [0 3 -1 0 0 0 0];

internalField   nonuniform List<scalar> 
51690
(
6.1396e-05
-0.000217776
0.000156438
0.000211597
-0.000150205
0.00030286
-9.12802e-05
0.000355711
-5.28584e-05
0.000384134
-2.84308e-05
0.000397955
-1.38201e-05
0.000406499
-8.54218e-06
0.000409781
-3.27879e-06
0.00041316
-3.37241e-06
0.000415807
-2.64027e-06
0.000419145
-3.33101e-06
0.000424382
-5.23385e-06
0.000423322
1.06239e-06
0.000429154
-5.82927e-06
0.00043572
-6.56322e-06
0.000441396
-5.67389e-06
0.000447853
-6.45526e-06
0.000455027
-7.17157e-06
0.000463064
-8.03534e-06
0.000471521
-8.45526e-06
0.000480716
-9.19443e-06
0.000490264
-9.54741e-06
0.000500221
-9.95676e-06
0.000510468
-1.02459e-05
0.000520819
-1.03509e-05
0.00053143
-1.06109e-05
0.000541926
-1.04969e-05
0.000552358
-1.04316e-05
0.000562446
-1.00876e-05
0.000572167
-9.72143e-06
0.000581278
-9.11079e-06
0.000589596
-8.31823e-06
0.000596984
-7.3873e-06
0.000603154
-6.16965e-06
0.000608035
-4.87999e-06
0.000611222
-3.18679e-06
0.000612492
-1.26869e-06
0.000610622
1.87124e-06
0.000603607
7.01593e-06
5.4456e-06
0.000598162
6.76786e-06
-0.000292725
6.81833e-05
9.11149e-05
-0.000234554
0.000170366
-0.000170534
0.00023696
-0.000119457
0.000287229
-7.87012e-05
0.000323548
-5.01421e-05
0.00034927
-3.4264e-05
0.000367389
-2.13971e-05
0.00038089
-1.68693e-05
0.000391824
-1.35697e-05
0.000401312
-1.2816e-05
0.000411117
-1.50368e-05
0.000419087
-6.90556e-06
0.000427842
-1.45824e-05
0.000436898
-1.56176e-05
0.000446522
-1.52956e-05
0.0004562
-1.61328e-05
0.000466562
-1.75323e-05
0.000477422
-1.88939e-05
0.000488467
-1.94989e-05
0.000500262
-2.09894e-05
0.00051217
-2.14552e-05
0.000524466
-2.22529e-05
0.000537015
-2.27943e-05
0.000549564
-2.29002e-05
0.000562352
-2.33993e-05
0.000574869
-2.30141e-05
0.000587259
-2.2822e-05
0.000599232
-2.20599e-05
0.000610725
-2.12148e-05
0.000621603
-1.99892e-05
0.000631584
-1.82988e-05
0.000640618
-1.64207e-05
0.000648317
-1.38684e-05
0.00065466
-1.12218e-05
0.000659187
-7.71225e-06
0.000662008
-4.08781e-06
0.000663262
6.19271e-07
0.000661195
9.08512e-06
8.21595e-06
0.000658426
-4.01545e-06
-0.000336374
4.76652e-05
4.98207e-05
-0.00028839
0.000111328
-0.000232043
0.000174636
-0.000182766
0.000231864
-0.000135931
0.000280271
-9.85503e-05
0.000319122
-7.31176e-05
0.000349029
-5.13037e-05
0.000372015
-3.98543e-05
0.000389915
-3.14681e-05
0.000404597
-2.74953e-05
0.000417445
-2.78832e-05
0.000429107
-1.85666e-05
0.000439857
-2.53316e-05
0.000450774
-2.65334e-05
0.000462071
-2.65913e-05
0.000473196
-2.72573e-05
0.000484644
-2.89786e-05
0.000496444
-3.06932e-05
0.000508476
-3.15299e-05
0.000521101
-3.36139e-05
0.000533877
-3.4231e-05
0.000546993
-3.53691e-05
0.00056033
-3.61304e-05
0.000573685
-3.62554e-05
0.00058723
-3.69437e-05
0.000600541
-3.63256e-05
0.000613704
-3.59848e-05
0.000626452
-3.48082e-05
0.000638685
-3.34475e-05
0.000650279
-3.15823e-05
0.00066094
-2.89601e-05
0.000670609
-2.60894e-05
0.000678912
-2.21715e-05
0.000685798
-1.81067e-05
0.000690853
-1.27667e-05
0.000693943
-7.1776e-06
0.000694813
-2.50392e-07
0.000692483
1.14154e-05
1.16482e-05
0.00068905
-5.09236e-06
-0.00036844
3.71593e-05
3.29253e-05
-0.000326408
7.85706e-05
-0.000277688
0.000130657
-0.000234853
0.000183905
-0.00018918
0.000234751
-0.000149398
0.000280444
-0.000118811
0.000319064
-8.99251e-05
0.00035094
-7.17304e-05
0.000376524
-5.70515e-05
0.000397534
-4.85043e-05
0.000415064
-4.54127e-05
0.000430936
-3.44373e-05
0.000444981
-3.93759e-05
0.000458335
-3.98865e-05
0.000471584
-3.98392e-05
0.000484549
-4.02219e-05
0.000497533
-4.19618e-05
0.000510661
-4.38204e-05
0.000523902
-4.47706e-05
0.000537585
-4.72964e-05
0.000551375
-4.80214e-05
0.000565423
-4.94172e-05
0.000579651
-5.03577e-05
0.000593881
-5.0486e-05
0.000608261
-5.13236e-05
0.000622415
-5.048e-05
0.000636394
-4.99641e-05
0.000649953
-4.83675e-05
0.000662965
-4.64592e-05
0.000675304
-4.39214e-05
0.000686676
-4.03323e-05
0.000697005
-3.64186e-05
0.000705917
-3.10829e-05
0.000713334
-2.55228e-05
0.000718861
-1.82933e-05
0.000722332
-1.06472e-05
0.000723397
-1.31403e-06
0.000721203
1.36107e-05
1.54363e-05
0.000717416
-3.95006e-06
-0.000394975
3.04858e-05
2.60015e-05
-0.000356359
6.14767e-05
-0.000313163
0.00010337
-0.000276746
0.000149334
-0.000235144
0.000197121
-0.000197186
0.000244101
-0.000165793
0.00028729
-0.000133115
0.000325692
-0.000110134
0.000358169
-8.95284e-05
0.00038568
-7.60152e-05
0.000408515
-6.82474e-05
0.000429181
-5.51019e-05
0.0004473
-5.74947e-05
0.000463874
-5.64601e-05
0.000479538
-5.55027e-05
0.000494676
-5.53588e-05
0.000509498
-5.67835e-05
0.000524204
-5.85259e-05
0.000538853
-5.94195e-05
0.000553741
-6.21837e-05
0.000568662
-6.29424e-05
0.000583746
-6.45008e-05
0.000598942
-6.55538e-05
0.000614102
-6.56456e-05
0.000629346
-6.65682e-05
0.000644347
-6.54804e-05
0.000659136
-6.47532e-05
0.000673487
-6.27182e-05
0.000687261
-6.02334e-05
0.000700335
-5.69946e-05
0.000712417
-5.24141e-05
0.000723409
-4.74111e-05
0.000732937
-4.061e-05
0.000740892
-3.34778e-05
0.000746883
-2.42844e-05
0.000750727
-1.44905e-05
0.00075205
-2.63621e-06
0.000750071
1.55888e-05
1.93945e-05
0.000746113
-2.62885e-06
-0.00041847
2.61246e-05
2.29927e-05
-0.00038198
5.24304e-05
-0.0003426
8.7038e-05
-0.000311353
0.00012613
-0.000274236
0.000168855
-0.000239912
0.000213617
-0.000210555
0.000257665
-0.000177164
0.000299542
-0.00015201
0.000337037
-0.000127024
0.00037022
-0.000109198
0.000398322
-9.63504e-05
0.000424051
-8.08306e-05
0.000446747
-8.01904e-05
0.000467195
-7.69079e-05
0.000485809
-7.4116e-05
0.000503537
-7.30864e-05
0.00052055
-7.37954e-05
0.000537149
-7.51245e-05
0.000553486
-7.57565e-05
0.000569811
-7.85088e-05
0.000586065
-7.91957e-05
0.000602357
-8.07928e-05
0.000618669
-8.18667e-05
0.000634887
-8.18633e-05
0.000651108
-8.27896e-05
0.000667054
-8.14267e-05
0.000682738
-8.0437e-05
0.000697944
-7.79246e-05
0.00071253
-7.4819e-05
0.000726368
-7.08333e-05
0.000739178
-6.52235e-05
0.000750847
-5.90806e-05
0.000761006
-5.07682e-05
0.000769519
-4.19904e-05
0.00077599
-3.07547e-05
0.000780214
-1.8714e-05
0.000781808
-4.22953e-06
0.000780046
1.73527e-05
2.34523e-05
0.000775989
-1.42433e-06
-0.000440207
2.31619e-05
2.17682e-05
-0.000405172
4.7654e-05
-0.000368485
7.74748e-05
-0.000341174
0.000111248
-0.000308009
0.000148981
-0.000277644
0.00019007
-0.000251645
0.000232555
-0.000219649
0.000275192
-0.000194649
0.000315449
-0.000167281
0.000352763
-0.000146513
0.000385413
-0.000129
0.000415953
-0.000111371
0.000443366
-0.000107603
0.000468114
-0.000101656
0.000490171
-9.61733e-05
0.000510954
-9.3869e-05
0.000530561
-9.34022e-05
0.000549414
-9.39766e-05
0.00056776
-9.41031e-05
0.000585793
-9.65415e-05
0.000603614
-9.70165e-05
0.000621318
-9.8496e-05
0.000638924
-9.94734e-05
0.000656358
-9.92969e-05
0.000673696
-0.000100128
0.000690715
-9.8445e-05
0.000707406
-9.71284e-05
0.000723572
-9.40906e-05
0.000739064
-9.03099e-05
0.000753745
-8.55148e-05
0.000767343
-7.88215e-05
0.000779735
-7.14724e-05
0.000790557
-6.15896e-05
0.000799655
-5.10876e-05
0.000806628
-3.77276e-05
0.000811251
-2.33364e-05
0.000813129
-6.10769e-06
0.000811572
1.89101e-05
2.75749e-05
0.000807449
-3.56714e-07
-0.00046093
2.10795e-05
2.14562e-05
-0.000426985
4.52616e-05
-0.000392291
7.20633e-05
-0.000367975
0.0001021
-0.000338045
0.000135757
-0.000311301
0.000173073
-0.00028896
0.000212886
-0.000259463
0.000254458
-0.00023622
0.000295485
-0.00020831
0.000335172
-0.000186199
0.000371193
-0.000165023
0.000405798
-0.000145976
0.000437631
-0.000139437
0.000466758
-0.000130783
0.000492564
-0.000121978
0.000516778
-0.000118083
0.000539357
-0.000115981
0.000560823
-0.000115442
0.000581521
-0.000114801
0.000601566
-0.000116586
0.000621228
-0.000116678
0.00064058
-0.000117848
0.000659689
-0.000118582
0.000678525
-0.000118133
0.000697142
-0.000118746
0.000715376
-0.000116679
0.000733204
-0.000114956
0.000750448
-0.000111335
0.000766955
-0.000106817
0.00078258
-0.00010114
0.000797056
-9.3297e-05
0.000810243
-8.46598e-05
0.000821786
-7.31321e-05
0.000831512
-6.08133e-05
0.000839021
-4.52363e-05
0.000844068
-2.83825e-05
0.000846247
-8.28567e-06
0.00084489
2.02683e-05
3.17483e-05
0.000840718
5.94125e-07
-0.000481109
1.95857e-05
2.1659e-05
-0.00044805
4.42809e-05
-0.000414912
6.92446e-05
-0.000392939
9.68147e-05
-0.000365615
0.000127479
-0.000341965
0.000161589
-0.00032307
0.00019857
-0.000296444
0.000238171
-0.000275821
0.000278589
-0.000248728
0.000319102
-0.000226712
0.000357195
-0.000203117
0.000394803
-0.000183585
0.00043037
-0.000175004
0.000463576
-0.000163988
0.000493166
-0.000151569
0.000521019
-0.000145935
0.000546864
-0.000141826
0.000571266
-0.000139844
0.000594641
-0.000138176
0.000617001
-0.000138947
0.000638787
-0.000138464
0.000660044
-0.000139104
0.000680886
-0.000139424
0.000701334
-0.000138581
0.000721415
-0.000138827
0.000741032
-0.000136295
0.000760143
-0.000134067
0.000778596
-0.000129787
0.000796237
-0.000124458
0.000812917
-0.00011782
0.000828372
-0.000108751
0.000842444
-9.87321e-05
0.000854784
-8.54717e-05
0.0008652
-7.1229e-05
0.000873293
-5.33286e-05
0.000878798
-3.38878e-05
0.000881302
-1.07887e-05
0.00088015
2.142e-05
3.59587e-05
0.00087594
1.45773e-06
-0.000501066
1.84997e-05
2.21838e-05
-0.000468775
4.41932e-05
-0.000436921
6.81012e-05
-0.000416846
9.41365e-05
-0.00039165
0.000122765
-0.000370594
0.000154441
-0.000354746
0.000188947
-0.000330949
0.000226379
-0.000313253
0.000265464
-0.000287813
0.000305707
-0.000266956
0.000344731
-0.000242141
0.000384225
-0.000223079
0.000422612
-0.000213391
0.00045929
-0.000200667
0.000492429
-0.000184707
0.000523903
-0.000177409
0.000553157
-0.00017108
0.000580724
-0.000167411
0.000607047
-0.000164498
0.000632005
-0.000163905
0.000656196
-0.000162655
0.000679618
-0.000162526
0.000702434
-0.00016224
0.000724715
-0.000160862
0.00074646
-0.000160573
0.000767642
-0.000157478
0.000788202
-0.000154627
0.000808012
-0.000149597
0.000826921
-0.000143368
0.000844775
-0.000135674
0.000861319
-0.000125295
0.000876376
-0.000113789
0.000889601
-9.86967e-05
0.000900781
-8.2409e-05
0.000909517
-6.20641e-05
0.000915527
-3.98972e-05
0.000918387
-1.36479e-05
0.000917456
2.23532e-05
4.01967e-05
0.000913219
2.2637e-06
-0.000521032
1.77024e-05
2.2934e-05
-0.000489445
4.47142e-05
-0.000458701
6.80939e-05
-0.000440226
9.32561e-05
-0.000416812
0.000120604
-0.000397942
0.00015059
-0.000384731
0.00018318
-0.000363538
0.000218668
-0.000348741
0.000256215
-0.00032536
0.000295586
-0.000306326
0.000334721
-0.000281276
0.000375136
-0.000263495
0.000415401
-0.000253656
0.000454776
-0.000240042
0.000491003
-0.000220935
0.000525856
-0.000212262
0.000558483
-0.000203707
0.000589314
-0.000198242
0.000618767
-0.000193951
0.000646554
-0.000191692
0.000673397
-0.000189497
0.000699236
-0.000188365
0.000724265
-0.000187269
0.000748606
-0.000185204
0.000772224
-0.00018419
0.000795165
-0.000180419
0.000817349
-0.000176811
0.000838677
-0.000170925
0.000859001
-0.000163692
0.000878161
-0.000154834
0.000895913
-0.000143047
0.000912062
-0.000129938
0.000926269
-0.000112904
0.000938298
-9.44376e-05
0.000947748
-7.15139e-05
0.000954318
-4.6467e-05
0.000957576
-1.69052e-05
0.000956887
2.30422e-05
4.4446e-05
0.000952639
3.03707e-06
-0.000541182
1.71126e-05
2.38588e-05
-0.000510267
4.56808e-05
-0.000480523
6.89004e-05
-0.000463445
9.36606e-05
-0.000441572
0.000120298
-0.000424579
0.00014922
-0.000413653
0.000180473
-0.000394792
0.000214435
-0.000382703
0.000250579
-0.000361505
0.000288879
-0.000344626
0.000327656
-0.000320053
0.000368301
-0.000304141
0.00040963
-0.000294986
0.000450904
-0.000281316
0.00048964
-0.000259671
0.000527458
-0.00025008
0.000563249
-0.000239499
0.000597295
-0.000232288
0.000629944
-0.000226601
0.000660711
-0.000222459
0.000690402
-0.000219188
0.000718875
-0.000216839
0.000746343
-0.000214737
0.000772967
-0.000211827
0.000798666
-0.000209889
0.000823565
-0.000205317
0.000847556
-0.000200802
0.000870571
-0.000193941
0.000892465
-0.000185586
0.000913074
-0.000175442
0.000932164
-0.000162136
0.000949521
-0.000147295
0.000964815
-0.000128198
0.000977785
-0.000107407
0.000988028
-8.17571e-05
0.000995223
-5.3661e-05
0.000998927
-2.06084e-05
0.000998514
2.34572e-05
4.869e-05
0.000994271
3.79837e-06
-0.000561653
1.66737e-05
2.49312e-05
-0.0005314
4.69968e-05
-0.000502588
7.03236e-05
-0.000486772
9.50243e-05
-0.000466272
0.000121377
-0.000450932
0.000149732
-0.000442008
0.000180166
-0.000425225
0.000213066
-0.000415603
0.000248114
-0.000396552
0.000285421
-0.000381933
0.000323669
-0.000358301
0.000364144
-0.000344616
0.000405942
-0.000336785
0.000448426
-0.000323799
0.000489078
-0.000300323
0.000529354
-0.000290356
0.00056797
-0.000278114
0.000605046
-0.000269364
0.000640834
-0.000262389
0.000674636
-0.000256261
0.000707298
-0.00025185
0.000738576
-0.000248116
0.000768676
-0.000244837
0.000797783
-0.000240935
0.000825767
-0.000237873
0.000852819
-0.00023237
0.000878804
-0.000226787
0.000903682
-0.000218818
0.000927309
-0.000209213
0.000949515
-0.000197648
0.000970081
-0.000182702
0.000988771
-0.000165985
0.00100526
-0.000144691
0.00101927
-0.000121416
0.0010304
-9.28807e-05
0.00103829
-6.1552e-05
0.0010425
-2.48153e-05
0.0010424
2.35562e-05
5.29032e-05
0.00103818
4.56418e-06
-0.000582562
1.63448e-05
2.61369e-05
-0.000552972
4.86038e-05
-0.000525055
7.2241e-05
-0.000510409
9.71385e-05
-0.00049117
0.000123527
-0.00047732
0.000151704
-0.000470185
0.000181748
-0.000455269
0.000214026
-0.000447881
0.000248342
-0.000430868
0.000284889
-0.00041848
0.000322648
-0.00039606
0.000362802
-0.000384771
0.000404715
-0.000378697
0.000447894
-0.000366979
0.000489942
-0.000342371
0.000532169
-0.000332583
0.000573204
-0.00031915
0.000613027
-0.000309187
0.000651785
-0.000301147
0.000688582
-0.000293059
0.000724255
-0.000287523
0.000758443
-0.000282304
0.000791323
-0.000277717
0.000823088
-0.0002727
0.000853539
-0.000268324
0.000882931
-0.000261762
0.000911092
-0.000254948
0.000938007
-0.000245733
0.000963533
-0.000234739
0.000987492
-0.000221607
0.00100968
-0.000204887
0.00102983
-0.000186138
0.00104764
-0.000162502
0.0010628
-0.000136571
0.00107489
-0.000104978
0.00108356
-7.02177e-05
0.00108833
-2.95881e-05
0.0010886
2.32937e-05
5.7059e-05
0.00108444
5.34761e-06
-0.000604006
1.60964e-05
2.74688e-05
-0.000575093
5.04656e-05
-0.000548052
7.45741e-05
-0.000534518
9.98679e-05
-0.000516464
0.00012654
-0.000503992
0.000154842
-0.000498487
0.000184847
-0.000485273
0.000216883
-0.000479917
0.000250829
-0.000464815
0.000286912
-0.000454562
0.000324348
-0.000433496
0.000364215
-0.000424638
0.000406095
-0.000420577
0.000449651
-0.000410536
0.000492702
-0.000385422
0.000536434
-0.000376315
0.000579482
-0.000362198
0.00062172
-0.000351425
0.000663204
-0.000342631
0.00070287
-0.000332725
0.000741512
-0.000326164
0.000778648
-0.00031944
0.000814403
-0.000313472
0.000848956
-0.000307253
0.000882032
-0.0003014
0.000913933
-0.000293663
0.000944441
-0.000285456
0.000973562
-0.000274854
0.00100115
-0.000262327
0.00102702
-0.000247475
0.00105097
-0.000228839
0.00107272
-0.000207891
0.00109198
-0.000181757
0.00110839
-0.000152984
0.00112156
-0.000118148
0.00113109
-7.97439e-05
0.0011365
-3.49976e-05
0.00113718
2.26134e-05
6.11218e-05
0.00113312
6.15903e-06
-0.000626072
1.59069e-05
2.8923e-05
-0.000597857
5.25593e-05
-0.000571688
7.72719e-05
-0.00055923
0.000103123
-0.000542314
0.000130276
-0.000531145
0.000158944
-0.000527155
0.000189191
-0.00051552
0.000221306
-0.000512031
0.000255211
-0.000498721
0.000291137
-0.000490488
0.00032848
-0.000470839
0.000368205
-0.000464362
0.000410063
-0.000462436
0.000453854
-0.000454327
0.000497655
-0.000429223
0.000542554
-0.000421213
0.000587258
-0.000406902
0.000631579
-0.000395747
0.000675509
-0.00038656
0.000717861
-0.000375078
0.000759363
-0.000367666
0.000799419
-0.000359497
0.000838087
-0.000352139
0.000875514
-0.000344681
0.000911337
-0.000337223
0.000945888
-0.000328214
0.000978898
-0.000318466
0.00101039
-0.000306342
0.0010402
-0.000292136
0.00106813
-0.000275406
0.00109399
-0.000254705
0.00111748
-0.000231382
0.00113831
-0.000202583
0.0011561
-0.000170772
0.00117045
-0.000132495
0.00118092
-9.02199e-05
0.00118705
-4.11181e-05
0.0011882
2.14573e-05
6.50546e-05
0.00118427
7.00685e-06
-0.000648839
1.57601e-05
3.04988e-05
-0.000621349
5.48708e-05
-0.00059606
8.03013e-05
-0.000584661
0.000106844
-0.000568857
0.000134639
-0.00055894
0.00016387
-0.000556386
0.00019459
-0.00054624
0.000227051
-0.000544493
0.000261202
-0.000532872
0.000297262
-0.000526547
0.000334757
-0.000508334
0.000374546
-0.000504151
0.000416498
-0.000504388
0.000460519
-0.000498348
0.000504952
-0.000473657
0.000550798
-0.000467059
0.000596884
-0.000452988
0.000642999
-0.000441862
0.000689095
-0.000432657
0.000733923
-0.000419906
0.000778129
-0.000411872
0.000821025
-0.000402393
0.00086259
-0.000393703
0.000902927
-0.000385018
0.000941581
-0.000375877
0.000978895
-0.000365527
0.00101454
-0.000354112
0.00104854
-0.00034034
0.00108072
-0.000324316
0.00111086
-0.000305548
0.00113879
-0.00028263
0.00116416
-0.00025675
0.00118668
-0.000225113
0.00120597
-0.000190054
0.0012216
-0.000148128
0.00123312
-0.000101741
0.00124004
-4.80311e-05
0.00124174
1.97585e-05
6.88119e-05
0.00123798
7.89797e-06
-0.000672381
1.5644e-05
3.21966e-05
-0.000645648
5.73917e-05
-0.000621255
8.36411e-05
-0.00061091
0.000110992
-0.000596209
0.000139568
-0.000587515
0.000169525
-0.000586343
0.00020091
-0.000577625
0.000233942
-0.000577525
0.000268585
-0.000567515
0.000305039
-0.000563002
0.00034293
-0.000546224
0.000383011
-0.000544232
0.000425231
-0.000546608
0.000469572
-0.00054269
0.000514626
-0.000518711
0.000561314
-0.000513748
0.000608603
-0.000500276
0.000656287
-0.000489546
0.000704307
-0.000480677
0.0007514
-0.000466999
0.000798136
-0.000458608
0.000843755
-0.000448012
0.000888159
-0.000438108
0.000931401
-0.00042826
0.000972931
-0.000417408
0.00101309
-0.000405683
0.00105148
-0.000392502
0.00108811
-0.000376972
0.00112279
-0.000358999
0.00115529
-0.000338041
0.00118541
-0.000312754
0.00121279
-0.000284131
0.00123715
-0.000249475
0.00125805
-0.000210953
0.00127508
-0.000165157
0.00128775
-0.000114406
0.00129554
-5.58197e-05
0.00129785
1.74492e-05
7.23475e-05
0.00129431
8.83817e-06
-0.000696768
1.55495e-05
3.40182e-05
-0.000670828
6.0118e-05
-0.000647355
8.72784e-05
-0.00063807
0.000115543
-0.000624473
0.000145019
-0.000616991
0.000175844
-0.000617167
0.000208058
-0.000609839
0.000241851
-0.000611318
0.000277199
-0.000602862
0.00031428
-0.000600083
0.000352791
-0.000584735
0.000393394
-0.000584834
0.000436085
-0.000589299
0.000480895
-0.000587501
0.000526637
-0.000564453
0.000574155
-0.000561266
0.000622558
-0.000548678
0.000671665
-0.000538653
0.000721422
-0.000530434
0.000770596
-0.000516173
0.000819688
-0.000507701
0.000867897
-0.000496221
0.000915056
-0.000485266
0.000961162
-0.000474366
0.00100558
-0.000461827
0.00104863
-0.000448728
0.00108984
-0.000433715
0.00112921
-0.000416342
0.00116652
-0.000396306
0.00120149
-0.000373013
0.00123394
-0.000345208
0.00126347
-0.000313657
0.00128979
-0.000275797
0.00131243
-0.000233588
0.00133096
-0.000183695
0.00134487
-0.000128315
0.00135363
-6.45726e-05
0.00135662
1.44541e-05
7.56074e-05
0.00135336
9.8324e-06
-0.00072207
1.54696e-05
3.59659e-05
-0.000696961
6.30485e-05
-0.000674437
9.12064e-05
-0.000666228
0.000120481
-0.000653748
0.000150966
-0.000647476
0.000182784
-0.000648986
0.000215971
-0.000643025
0.000250692
-0.00064604
0.000286929
-0.000639099
0.000324841
-0.000637995
0.00036418
-0.000624075
0.000405522
-0.000626176
0.000448893
-0.00063267
0.000494354
-0.000632962
0.000540902
-0.000611001
0.00058931
-0.000609674
0.000638817
-0.000598185
0.000689275
-0.000589111
0.000740646
-0.000581806
0.00079176
-0.000567287
0.00084306
-0.000559
0.000893729
-0.00054689
0.000943544
-0.000535081
0.000992452
-0.000523274
0.00103974
-0.000509118
0.0010857
-0.00049468
0.00112979
-0.000477805
0.00117197
-0.00045853
0.001212
-0.000436336
0.00124957
-0.000410577
0.00128447
-0.000380112
0.00131627
-0.00034545
0.00134467
-0.000304202
0.00136916
-0.000258079
0.00138932
-0.000203854
0.00140458
-0.000143569
0.00141438
-7.43779e-05
0.00141814
1.06996e-05
7.85379e-05
0.00141521
1.0885e-05
-0.000748354
1.5399e-05
3.80429e-05
-0.000724119
6.6184e-05
-0.000702578
9.54223e-05
-0.000695466
0.000125798
-0.000684123
0.000157394
-0.000679073
0.00019032
-0.000681912
0.000224609
-0.000677314
0.000260405
-0.000681836
0.000297695
-0.000676389
0.00033662
-0.000676921
0.000376975
-0.000664429
0.000419259
-0.00066846
0.000463517
-0.000676928
0.000509821
-0.000679266
0.000557325
-0.000658505
0.00060673
-0.000659078
0.000657392
-0.000648847
0.000709195
-0.000640914
0.000762122
-0.000634733
0.000815086
-0.000620251
0.00086848
-0.000612394
0.000921497
-0.000599908
0.000973874
-0.000587458
0.00102551
-0.000574911
0.00107564
-0.000559248
0.0011245
-0.000543538
0.0011715
-0.000524805
0.00121657
-0.000503595
0.0012594
-0.000479169
0.00129965
-0.000450831
0.00133712
-0.000417575
0.00137129
-0.000379626
0.0014019
-0.000334806
0.00142836
-0.000284541
0.00145025
-0.000225742
0.00146695
-0.00016027
0.0014779
-8.53268e-05
0.00148249
6.10679e-06
8.10789e-05
0.00147995
1.20001e-05
-0.000775688
1.53336e-05
4.02529e-05
-0.000752372
6.95273e-05
-0.000731853
9.9927e-05
-0.000725866
0.000131491
-0.000715686
0.000164295
-0.000711877
0.000198436
-0.000716053
0.000233945
-0.000712823
0.00027095
-0.000718841
0.000309442
-0.000714881
0.000349545
-0.000717024
0.000391087
-0.000705971
0.000434503
-0.000711876
0.000479843
-0.000722267
0.000527185
-0.000726608
0.000575811
-0.000707131
0.000626352
-0.000709619
0.000678264
-0.000700759
0.000731461
-0.000694111
0.000785942
-0.000689214
0.000840716
-0.000675025
0.000896133
-0.000667811
0.000951417
-0.000655191
0.00100628
-0.000642317
0.00106057
-0.000629211
0.0011135
-0.000612178
0.00116525
-0.000595286
0.00121518
-0.00057473
0.00126316
-0.000551578
0.00130886
-0.00052487
0.00135189
-0.000493858
0.00139201
-0.000457692
0.00142867
-0.00041629
0.00146158
-0.000367717
0.00149012
-0.000313082
0.00151385
-0.000249465
0.00153209
-0.000178517
0.00154427
-9.75076e-05
0.00154978
6.00373e-07
8.31725e-05
0.00154769
1.31813e-05
-0.000804139
1.52702e-05
4.26e-05
-0.000781791
7.30825e-05
-0.000762335
0.000104724
-0.000757507
0.000137562
-0.000748524
0.000171667
-0.000745982
0.000207125
-0.000751511
0.000243968
-0.000749665
0.000282307
-0.00075718
0.000322137
-0.000754711
0.000363569
-0.000758456
0.000406457
-0.000748859
0.000451179
-0.000756598
0.000497786
-0.000768874
0.000546357
-0.000775179
0.000596278
-0.000757052
0.000648113
-0.000761454
0.000701401
-0.000754048
0.000756079
-0.000748789
0.000812162
-0.000745297
0.000868753
-0.000731617
0.000926167
-0.000725225
0.000983669
-0.000712692
0.00104095
-0.0006996
0.00109786
-0.000686115
0.00115355
-0.000667868
0.00120816
-0.000649901
0.00126102
-0.000627583
0.00131194
-0.000602505
0.00136056
-0.000573488
0.00140643
-0.000539726
0.00144928
-0.000500545
0.00148853
-0.000455536
0.00152385
-0.000403035
0.00155457
-0.000343804
0.00158023
-0.000275124
0.00160012
-0.000198406
0.00161362
-0.000111009
0.00162012
-5.89821e-06
8.47563e-05
0.00161854
1.44323e-05
-0.000833778
1.52061e-05
4.50888e-05
-0.000812447
7.6855e-05
-0.000794102
0.000109818
-0.00079047
0.000144016
-0.000782722
0.000179513
-0.00078148
0.000216389
-0.000788387
0.000254673
-0.000787949
0.000294465
-0.000796972
0.000335763
-0.00079601
0.000378665
-0.000801358
0.000423048
-0.000793241
0.000469239
-0.000802789
0.00051729
-0.000816925
0.000567273
-0.000825163
0.000618662
-0.000808441
0.000671957
-0.000814749
0.000726766
-0.000808857
0.000783042
-0.000805065
0.000840812
-0.000803066
0.000899268
-0.000790073
0.000958694
-0.000784651
0.0010184
-0.000772401
0.00107808
-0.000759281
0.00113756
-0.00074559
0.00119598
-0.000726291
0.00125345
-0.000707366
0.00130923
-0.000683365
0.00136312
-0.000656396
0.00141469
-0.00062506
0.00146346
-0.000588493
0.00150912
-0.000546206
0.00155103
-0.000497446
0.00158885
-0.00044085
0.00162185
-0.000376804
0.00164954
-0.000302814
0.00167116
-0.000220028
0.00168607
-0.000125915
0.00169363
-1.34609e-05
8.57718e-05
0.00169262
1.5757e-05
-0.000864674
1.51391e-05
4.77246e-05
-0.000844415
8.08512e-05
-0.000827228
0.000115217
-0.000824836
0.000150861
-0.000818366
0.000187842
-0.000818461
0.000226234
-0.000826779
0.000266064
-0.000827779
0.000307424
-0.000838332
0.000350315
-0.0008389
0.000394822
-0.000845865
0.00044084
-0.00083926
0.000488657
-0.000850605
0.000538317
-0.000866585
0.000589888
-0.000876734
0.000642916
-0.000861468
0.000697842
-0.000869675
0.000754329
-0.000865343
0.000812341
-0.000863078
0.00087191
-0.000862635
0.000932313
-0.000850477
0.000993803
-0.00084614
0.00105574
-0.00083434
0.00111782
-0.000821363
0.00117986
-0.000807622
0.001241
-0.000787434
0.0013013
-0.000767668
0.00136001
-0.000742077
0.00141689
-0.000713266
0.00147144
-0.000679618
0.00152316
-0.000640207
0.00157169
-0.000594736
0.00161634
-0.000542096
0.00165673
-0.000481244
0.0016921
-0.000412167
0.0017219
-0.000332623
0.00174535
-0.000243471
0.00176174
-0.000142308
0.00177044
-2.2161e-05
8.61578e-05
0.00177005
1.71591e-05
-0.0008969
1.50674e-05
5.0513e-05
-0.000877768
8.50787e-05
-0.000861794
0.00012093
-0.000860687
0.000158107
-0.000855543
0.000196665
-0.000857019
0.00023667
-0.000866784
0.000278153
-0.000869262
0.000321193
-0.000881372
0.000365797
-0.000883503
0.000412038
-0.000892107
0.000459831
-0.000887052
0.00050942
-0.000900195
0.00056085
-0.000918014
0.00061418
-0.000930065
0.000669016
-0.000916304
0.000725744
-0.000926403
0.000784072
-0.000923671
0.000843971
-0.000922977
0.000905472
-0.000924135
0.000967929
-0.000912934
0.00103156
-0.000909776
0.00109579
-0.000898566
0.00116031
-0.000885879
0.00122491
-0.000872229
0.00128879
-0.000851306
0.00135193
-0.000830813
0.00141358
-0.000803729
0.00147345
-0.000773132
0.00153102
-0.000737192
0.00158573
-0.00069491
0.00163718
-0.000646188
0.00168463
-0.000589551
0.00172768
-0.00052429
0.00176549
-0.000449974
0.0017975
-0.000364632
0.00182284
-0.000268816
0.0018408
-0.000160262
0.0018507
-3.2063e-05
8.58598e-05
0.001851
1.86426e-05
-0.000930532
1.4989e-05
5.34604e-05
-0.000912586
8.95459e-05
-0.000897879
0.000126968
-0.000898109
0.000165766
-0.000894341
0.000205994
-0.000897247
0.000247713
-0.000908502
0.000290953
-0.000912502
0.000335787
-0.000926206
0.000382222
-0.000929939
0.000430327
-0.000940212
0.000480026
-0.000936752
0.000531534
-0.000951703
0.000584889
-0.000971369
0.000640143
-0.000985319
0.000696952
-0.000973112
0.000755653
-0.000985104
0.000815989
-0.000984008
0.000877935
-0.000984923
0.000941517
-0.000987717
0.00100616
-0.000977572
0.00107204
-0.000975664
0.00113864
-0.000965163
0.00120565
-0.000952892
0.00127288
-0.000939452
0.00133951
-0.000917935
0.00140551
-0.00089682
0.00147013
-0.000868341
0.00153301
-0.000836019
0.00159363
-0.000797811
0.00165136
-0.000752643
0.00170579
-0.000700613
0.00175611
-0.000639871
0.00180188
-0.000570054
0.0018422
-0.000490298
0.00187648
-0.000398916
0.0019038
-0.000296136
0.00192339
-0.000179849
0.00193456
-4.32309e-05
8.48224e-05
0.0019356
2.02115e-05
-0.000965646
1.49025e-05
5.65733e-05
-0.000948948
9.4262e-05
-0.000935568
0.000133341
-0.000937188
0.000173853
-0.000934853
0.000215847
-0.000939241
0.00025938
-0.000952035
0.000304484
-0.000957606
0.000351224
-0.000972946
0.000399611
-0.000978326
0.000449706
-0.000990306
0.000501445
-0.000988491
0.000555015
-0.00100527
0.000610446
-0.0010268
0.000667786
-0.00104266
0.000726732
-0.00103206
0.000787576
-0.00104595
0.000850091
-0.00104652
0.000914249
-0.00104908
0.00098007
-0.00105354
0.00104703
-0.00104454
0.0011153
-0.00104393
0.00118438
-0.00103424
0.00125397
-0.00102249
0.00132388
-0.00100936
0.00139332
-0.000987375
0.00146223
-0.000965732
0.00152984
-0.000935948
0.00159578
-0.00090196
0.00165948
-0.000861513
0.00172029
-0.000813448
0.00177773
-0.000758058
0.00183097
-0.000693114
0.00187952
-0.000618598
0.00192243
-0.000533204
0.00195905
-0.000435544
0.00198842
-0.000325501
0.0020097
-0.000201132
0.00202219
-5.57185e-05
8.29985e-05
0.00202402
2.18701e-05
-0.00100232
1.48064e-05
5.98589e-05
-0.000986937
9.92369e-05
-0.000974946
0.000140064
-0.000978015
0.000182383
-0.000977172
0.000226241
-0.000983099
0.000271692
-0.000997486
0.000318768
-0.00100468
0.00036753
-0.00102171
0.00041799
-0.00102879
0.000470202
-0.00104252
0.000524114
-0.0010424
0.000579886
-0.00106104
0.000637545
-0.00108446
0.000697131
-0.00110224
0.000758377
-0.0010933
0.000821534
-0.00110911
0.000886398
-0.00111139
0.000952938
-0.00111562
0.00102117
-0.00112177
0.00109061
-0.00111398
0.0011614
-0.00111473
0.00123308
-0.00110592
0.00130537
-0.00109477
0.00137805
-0.00108204
0.00145037
-0.0010597
0.00152225
-0.00103761
0.0015929
-0.0010066
0.00166195
-0.000971002
0.00172878
-0.000928342
0.0017927
-0.000877373
0.00185322
-0.000818573
0.00190944
-0.000749332
0.00196082
-0.00066998
0.00200637
-0.000578757
0.00204541
-0.000474578
0.00207688
-0.000356973
0.00209992
-0.000224173
0.00211378
-6.95776e-05
8.03415e-05
0.00211644
2.36229e-05
-0.00104064
1.46992e-05
6.33248e-05
-0.00102664
0.000104482
-0.0010161
0.000147149
-0.00102068
0.000191373
-0.0010214
0.000237197
-0.00102892
0.000284672
-0.00104496
0.000333832
-0.00105384
0.000384732
-0.00107261
0.000437387
-0.00108144
0.000491846
-0.00109698
0.000548067
-0.00109862
0.000606184
-0.00111916
0.000666221
-0.0011445
0.000728212
-0.00116424
0.000791921
-0.00115701