/*--------------------------------*- C++ -*----------------------------------*\
| =========                 |                                                 |
| \\      /  F ield         | OpenFOAM: The Open Source CFD Toolbox           |
|  \\    /   O peration     | Version:  5.x                                   |
|   \\  /    A nd           | Web:      www.OpenFOAM.org                      |
|    \\/     M anipulation  |                                                 |
\*---------------------------------------------------------------------------*/
FoamFile
{
    version     2.0;
    format      ascii;
    class       volVectorField;
    location    "100";
    object      U;
}
// * * * * * * * * * * * * * * * * * * * * * * * * * * * * * * * * * * * * * //

dimensions      [0 1 -1 0 0 0 0];

internalField   nonuniform List<vector> 
26000
(
(0.677021 -2.71094e-22 -0.110001)
(0.667531 2.93227e-22 0.374289)
(0.759589 1.19996e-19 0.701766)
(0.897259 -1.37637e-19 0.884799)
(1.04321 1.94183e-19 0.96576)
(1.1778 3.26554e-19 0.984049)
(1.29547 0 0.972977)
(1.39688 0 0.944626)
(1.48078 0 0.908061)
(1.55034 8.10624e-19 0.86825)
(1.60604 -8.80582e-19 0.826681)
(1.65366 0 0.789953)
(1.68911 0 0.743811)
(1.716 -6.89207e-19 0.699012)
(1.74017 -1.75119e-20 0.66288)
(1.76198 7.01662e-19 0.627119)
(1.77745 0 0.590165)
(1.78904 -1.43822e-18 0.553969)
(1.79749 0 0.520214)
(1.80328 0 0.488035)
(1.80729 0 0.457245)
(1.80884 -7.09497e-19 0.428013)
(1.80887 2.80439e-18 0.399922)
(1.80738 -6.91502e-19 0.373192)
(1.80426 -7.62674e-21 0.3475)
(1.80025 0 0.323021)
(1.79501 -6.71204e-19 0.299797)
(1.78903 1.32781e-18 0.277515)
(1.78213 -1.96141e-18 0.25624)
(1.77443 -1.29546e-18 0.235883)
(1.76612 1.27847e-18 0.21638)
(1.75704 0 0.197665)
(1.74742 0 0.179652)
(1.73702 -1.87058e-18 0.162404)
(1.72612 -3.20617e-23 0.145842)
(1.71455 6.17798e-19 0.129972)
(1.70238 3.08829e-19 0.114725)
(1.68905 1.52022e-19 0.100566)
(1.66721 1.36897e-18 0.0850372)
(1.64821 3.30003e-21 0.0727803)
(0.835518 0 -0.0910515)
(0.784931 6.20914e-21 0.103083)
(0.803153 1.76218e-20 0.31503)
(0.880425 -1.08554e-19 0.495177)
(0.990709 -1.00629e-19 0.625971)
(1.11151 -1.68913e-19 0.708225)
(1.22893 2.89542e-19 0.752499)
(1.33579 -1.09857e-19 0.766698)
(1.42767 -5.33409e-19 0.76289)
(1.5047 -6.61961e-19 0.746905)
(1.5681 7.20351e-19 0.723892)
(1.62012 0 0.699469)
(1.66578 4.06942e-19 0.669161)
(1.70065 -4.106e-19 0.639703)
(1.72996 0 0.609339)
(1.75542 -4.62432e-19 0.578153)
(1.7763 -1.00473e-20 0.548044)
(1.7928 4.71274e-19 0.518231)
(1.80549 0 0.48954)
(1.81538 9.56969e-19 0.461278)
(1.82265 4.91092e-19 0.43408)
(1.8277 -4.8175e-19 0.408009)
(1.8308 0 0.382581)
(1.83218 9.60875e-19 0.358282)
(1.83207 -9.09133e-21 0.334742)
(1.83068 0 0.312138)
(1.82819 -9.42877e-19 0.290348)
(1.82462 -9.40846e-19 0.26915)
(1.82003 9.38115e-19 0.248725)
(1.81447 0 0.229051)
(1.80813 -4.65272e-19 0.21012)
(1.80107 4.54692e-19 0.191865)
(1.79334 0 0.174213)
(1.78495 0 0.157204)
(1.77593 -4.50669e-19 0.140789)
(1.7664 -4.49967e-19 0.124958)
(1.75605 0 0.109658)
(1.74641 -9.04703e-19 0.0954361)
(1.73762 -2.62148e-21 0.0799271)
(1.72769 2.88908e-21 0.0685283)
(0.973784 3.00316e-20 -0.0781277)
(0.919727 -5.11504e-20 0.0256038)
(0.891931 -1.00942e-19 0.160109)
(0.903886 4.59768e-20 0.306465)
(0.955017 0 0.441725)
(1.03411 -2.15731e-20 0.55082)
(1.12826 -1.3594e-19 0.629522)
(1.22622 5.90176e-20 0.677939)
(1.31942 3.14589e-19 0.701907)
(1.40281 0 0.706973)
(1.47475 -3.93451e-19 0.699093)
(1.53445 2.1233e-19 0.684097)
(1.58691 -4.90945e-19 0.662198)
(1.63174 -1.05432e-20 0.637597)
(1.66921 2.71887e-19 0.610422)
(1.70025 5.92246e-19 0.583055)
(1.72632 3.11203e-19 0.555222)
(1.74799 -3.17942e-19 0.526927)
(1.76528 3.33117e-19 0.499023)
(1.77938 -1.00347e-18 0.471251)
(1.79036 0 0.444509)
(1.79881 3.46153e-19 0.418466)
(1.80509 -3.47236e-19 0.393054)
(1.80932 -7.05131e-19 0.368607)
(1.81186 -7.00749e-19 0.344764)
(1.8128 -7.0768e-19 0.321941)
(1.81242 7.00537e-19 0.299854)
(1.81078 4.14344e-21 0.27846)
(1.808 1.386e-18 0.257828)
(1.80416 -1.71607e-18 0.237875)
(1.7994 -3.44471e-19 0.218685)
(1.79383 6.76369e-19 0.200111)
(1.78748 -6.77554e-19 0.182203)
(1.78043 3.34754e-19 0.164884)
(1.77271 1.01484e-18 0.148191)
(1.76446 0 0.132072)
(1.75557 6.767e-19 0.116436)
(1.74632 -5.07941e-19 0.101401)
(1.73622 -1.45925e-18 0.0854201)
(1.72639 3.55263e-19 0.0730294)
(1.07163 -2.00685e-20 -0.0632098)
(1.02924 3.72235e-20 1.81026e-05)
(0.992006 4.06878e-20 0.0844403)
(0.974231 4.0398e-20 0.187731)
(0.984472 1.18071e-20 0.298789)
(1.02255 7.12937e-20 0.404225)
(1.08334 -1.00521e-19 0.494643)
(1.15881 0 0.563685)
(1.24017 0 0.610489)
(1.31994 -2.19993e-19 0.63646)
(1.3934 5.16912e-19 0.645899)
(1.457 -4.57482e-19 0.643522)
(1.51378 3.21154e-19 0.6324)
(1.56436 -1.75708e-19 0.61579)
(1.60776 -1.8029e-19 0.594212)
(1.64356 -6.2438e-19 0.571047)
(1.67377 -4.24576e-19 0.54665)
(1.69944 -2.19864e-19 0.521138)
(1.72042 2.33589e-19 0.495307)
(1.7379 0 0.469159)
(1.75188 4.95145e-19 0.443616)
(1.763 -4.9862e-19 0.418523)
(1.7717 -5.15033e-19 0.393862)
(1.77811 1.03363e-18 0.369979)
(1.78269 0 0.346597)
(1.7855 0 0.324111)
(1.78687 1.57461e-18 0.302306)
(1.78689 2.6666e-22 0.281139)
(1.78568 -2.76981e-21 0.260688)
(1.78336 1.04992e-18 0.24085)
(1.78001 -5.22875e-19 0.221741)
(1.77577 -5.19212e-19 0.203218)
(1.77066 1.03808e-18 0.185342)
(1.7648 2.54462e-19 0.168026)
(1.75819 -2.57491e-19 0.151297)
(1.75099 -5.10674e-19 0.135119)
(1.74315 -5.16297e-19 0.119407)
(1.73482 1.57298e-21 0.104252)
(1.72539 4.89468e-19 0.0884198)
(1.71601 1.06141e-21 0.0752272)
(1.13543 2.08643e-20 -0.0513387)
(1.10427 3.46105e-20 -0.00830878)
(1.07157 0 0.0475718)
(1.04604 5.26438e-21 0.118779)
(1.03593 9.27811e-21 0.202348)
(1.04592 -8.77242e-20 0.29112)
(1.07699 9.07224e-20 0.377374)
(1.12649 0 0.453223)
(1.18871 0 0.513772)
(1.25694 7.61306e-20 0.556331)
(1.3252 -9.52272e-20 0.582043)
(1.38801 -2.0216e-19 0.593248)
(1.44629 0 0.593784)
(1.50019 2.54349e-19 0.586791)
(1.54796 4.11598e-19 0.572598)
(1.58786 -1.47268e-19 0.554799)
(1.62179 3.16673e-19 0.53454)
(1.65103 5.05825e-19 0.512421)
(1.6754 -5.25063e-19 0.489183)
(1.69607 -3.61065e-19 0.465059)
(1.71288 -3.7953e-19 0.441043)
(1.72654 3.82671e-19 0.417113)
(1.73758 3.92411e-19 0.393393)
(1.7461 -7.93892e-19 0.370222)
(1.75262 0 0.347402)
(1.75717 4.08513e-19 0.325352)
(1.76012 -1.2111e-18 0.30389)
(1.7616 -4.08861e-19 0.283008)
(1.76177 -8.18925e-19 0.262784)
(1.76075 8.14808e-19 0.243121)
(1.75864 -4.09505e-19 0.224152)
(1.75559 0 0.20574)
(1.75163 -4.10245e-19 0.187952)
(1.74687 -2.02818e-19 0.170697)
(1.7413 2.34171e-22 0.154003)
(1.73508 6.0363e-19 0.137832)
(1.72818 0 0.122114)
(1.72072 4.05342e-19 0.106914)
(1.71221 7.62279e-19 0.0911502)
(1.70353 2.1467e-19 0.0774883)
(1.18264 -1.45984e-20 -0.0432308)
(1.15894 -2.8515e-20 -0.0116089)
(1.13227 0 0.0278788)
(1.10737 -2.80892e-20 0.0781302)
(1.0898 1.54746e-20 0.139549)
(1.08444 -1.85016e-22 0.209512)
(1.09465 2.56484e-22 0.283791)
(1.12163 8.60266e-20 0.356217)
(1.16342 -1.19449e-19 0.421097)
(1.21589 0 0.473512)
(1.27382 6.08002e-20 0.511744)
(1.3313 3.00221e-19 0.535299)
(1.38752 4.65507e-21 0.547424)
(1.44192 4.8174e-21 0.550741)
(1.49204 -2.95512e-19 0.545151)
(1.53495 1.14491e-19 0.533819)
(1.57195 -3.5034e-19 0.51853)
(1.60429 -2.57435e-19 0.500447)
(1.63169 -6.36259e-21 0.480365)
(1.6553 2.73282e-19 0.458762)
(1.67482 2.94803e-19 0.436681)
(1.69096 5.90338e-19 0.414247)
(1.7043 -6.09437e-19 0.391725)
(1.71491 3.14748e-19 0.369472)
(1.72337 -6.23865e-19 0.347379)
(1.72967 2.67726e-21 0.325888)
(1.7342 3.26268e-19 0.304868)
(1.73716 -6.51525e-19 0.28435)
(1.73866 0 0.264416)
(1.73889 -9.86056e-19 0.244978)
(1.73793 1.3211e-18 0.226178)
(1.73597 -3.27143e-19 0.207899)
(1.73304 6.59129e-19 0.190223)
(1.72928 0 0.173058)
(1.72468 0 0.156428)
(1.71937 -3.25892e-19 0.140295)
(1.71334 0 0.1246)
(1.70669 0 0.109388)
(1.69905 -3.08487e-19 0.0936883)
(1.69111 -5.17557e-19 0.0797384)
(1.21952 0 -0.0375167)
(1.2009 0 -0.013084)
(1.17929 -2.65197e-20 0.0163712)
(1.15739 5.37483e-20 0.0531765)
(1.13852 0 0.0986394)
(1.12631 0 0.152396)
(1.12416 -6.33059e-20 0.212928)
(1.13484 -8.24737e-20 0.276546)
(1.15898 9.24251e-20 0.338694)
(1.19522 0 0.394227)
(1.24019 -2.45038e-19 0.439856)
(1.28892 1.13143e-19 0.472777)
(1.33973 -6.0634e-20 0.495019)
(1.39159 0 0.508272)
(1.44163 7.7257e-20 0.511788)
(1.48595 2.62275e-19 0.507762)
(1.52508 5.5673e-21 0.49828)
(1.55989 1.97138e-19 0.48494)
(1.58989 -4.38217e-21 0.46862)
(1.61616 2.16454e-19 0.45007)
(1.63821 -2.3539e-19 0.430354)
(1.65674 -2.43445e-19 0.409765)
(1.67232 7.44434e-19 0.388728)
(1.68499 -5.05553e-19 0.367628)
(1.69536 5.10345e-19 0.34646)
(1.70341 2.61862e-19 0.32569)
(1.70954 0 0.305239)
(1.71397 5.36637e-19 0.285184)
(1.71683 0 0.265617)
(1.71832 0 0.246474)
(1.71853 2.71296e-19 0.227899)
(1.71763 -1.07581e-18 0.209794)
(1.7157 -5.45992e-19 0.192253)
(1.71288 8.06614e-19 0.175194)
(1.70918 1.3588e-19 0.158645)
(1.70472 -5.3655e-19 0.142569)
(1.69951 -2.6976e-19 0.126913)
(1.69361 -6.73352e-20 0.111708)
(1.68677 -3.16773e-19 0.0960657)
(1.67954 1.42401e-19 0.0819272)
(1.24932 1.17216e-20 -0.0333188)
(1.2343 0 -0.0137815)
(1.21661 2.19741e-20 0.00911513)
(1.19795 2.75567e-21 0.0370934)
(1.18026 0 0.0714625)
(1.16589 0 0.112708)
(1.15747 3.75739e-20 0.160799)
(1.15783 1.42868e-20 0.214025)
(1.1688 3.14102e-20 0.269495)
(1.19094 -6.99222e-20 0.323025)
(1.22283 -5.02521e-22 0.371063)
(1.26113 4.3877e-20 0.40955)
(1.30411 0 0.43932)
(1.35077 0 0.461058)
(1.39824 1.20235e-19 0.47326)
(1.44211 1.4036e-19 0.476798)
(1.48206 -4.34521e-19 0.473667)
(1.51843 -1.61163e-19 0.465654)
(1.55042 -1.71757e-19 0.453662)
(1.57891 -1.79464e-19 0.438694)
(1.60324 1.87817e-19 0.421814)
(1.62399 0 0.403474)
(1.64172 0 0.384248)
(1.65641 -2.09691e-19 0.364568)
(1.66866 4.21797e-19 0.344543)
(1.67845 -6.51287e-19 0.324671)
(1.68618 -2.19372e-19 0.304933)
(1.69209 2.21776e-19 0.285456)
(1.69632 0 0.266353)
(1.69909 -2.2533e-19 0.247584)
(1.70047 1.17863e-21 0.2293)
(1.70066 -2.22709e-19 0.211425)
(1.69973 0 0.194059)
(1.69783 -4.53197e-19 0.177135)
(1.695 4.5554e-19 0.160687)
(1.69136 4.53348e-19 0.144683)
(1.68692 6.82178e-19 0.129081)
(1.68175 2.83062e-19 0.113896)
(1.67565 -2.65666e-19 0.0983053)
(1.66908 3.5713e-22 0.084041)
(1.27404 -1.79334e-20 -0.0301381)
(1.26164 1.8128e-20 -0.0141177)
(1.24696 2.55604e-20 0.00424633)
(1.23115 -4.47535e-20 0.0262178)
(1.21537 -1.03807e-20 0.0528753)
(1.20111 1.10489e-20 0.0848998)
(1.19011 0 0.122884)
(1.18471 2.59823e-20 0.16632)
(1.1869 2.66648e-20 0.213725)
(1.19821 8.73798e-20 0.262224)
(1.21865 -3.19587e-20 0.30882)
(1.24655 1.1148e-19 0.34922)
(1.2806 -8.00477e-20 0.383449)
(1.32024 -4.74564e-20 0.411421)
(1.36301 9.73138e-20 0.430999)
(1.40454 -2.20589e-19 0.441651)
(1.44379 2.40932e-19 0.444957)
(1.48059 1.32259e-19 0.442608)
(1.51375 -1.37483e-19 0.435387)
(1.54388 -1.48034e-19 0.424467)
(1.57008 -3.42981e-21 0.410857)
(1.5928 3.23258e-19 0.39516)
(1.61252 1.68442e-19 0.37809)
(1.62911 0 0.360123)
(1.6432 3.52727e-19 0.341492)
(1.65471 3.69319e-19 0.322721)
(1.66403 1.85301e-19 0.303859)
(1.67143 1.87833e-19 0.285094)
(1.67703 -1.90322e-19 0.26656)
(1.68108 1.90244e-19 0.248255)
(1.68365 3.86765e-19 0.23034)
(1.68495 3.85185e-19 0.212757)
(1.68504 -1.94541e-19 0.19562)
(1.68407 -5.73621e-22 0.17887)
(1.68211 -1.95842e-19 0.162553)
(1.67927 0 0.146644)
(1.67559 -3.89667e-19 0.13111)
(1.67112 -1.94117e-19 0.11596)
(1.66572 3.63831e-19 0.100419)
(1.65977 1.03547e-19 0.0860722)
(1.29496 9.11083e-21 -0.0276593)
(1.28454 -1.8077e-20 -0.0142679)
(1.27218 -1.78807e-20 0.000817966)
(1.25873 0 0.0185407)
(1.24491 0 0.0397409)
(1.23167 3.98961e-20 0.0650527)
(1.2201 0 0.0952339)
(1.21191 -8.72163e-20 0.130377)
(1.20882 -2.33149e-20 0.169928)
(1.21259 5.09764e-20 0.212164)
(1.22403 3.90369e-22 0.254933)
(1.24275 -1.5526e-19 0.294384)
(1.26802 6.80482e-20 0.33018)
(1.29982 2.79984e-22 0.361841)
(1.33646 7.9944e-20 0.386886)
(1.37405 2.77606e-19 0.40357)
(1.41111 0 0.412874)
(1.44709 -2.15269e-19 0.416147)
(1.48045 1.18006e-19 0.413895)
(1.51147 -1.20747e-19 0.407338)
(1.53902 1.33503e-19 0.39736)
(1.56333 -1.34904e-19 0.384674)
(1.58478 -2.87695e-19 0.370095)
(1.60312 -1.45484e-19 0.354137)
(1.61894 -4.53242e-19 0.337156)
(1.6321 -4.70064e-19 0.319704)
(1.64299 3.15611e-19 0.301906)
(1.65187 -3.22984e-19 0.284005)
(1.65884 -4.87016e-19 0.266164)
(1.66418 0 0.248424)
(1.66794 -1.66524e-19 0.230961)
(1.67035 3.31291e-19 0.213743)
(1.67147 6.70268e-22 0.196893)
(1.67145 -1.66157e-19 0.180369)
(1.67037 -3.35881e-19 0.164222)
(1.66834 0 0.148437)
(1.66541 0 0.132993)
(1.66163 8.39353e-20 0.117895)
(1.65691 -5.51537e-19 0.102409)
(1.65156 -1.7649e-19 0.0880107)
(1.31296 0 -0.0256716)
(1.30407 -4.16343e-21 -0.0143072)
(1.29353 5.30071e-23 -0.00168014)
(1.28199 4.19688e-21 0.0129284)
(1.26994 3.47338e-20 0.0301667)
(1.258 1.8853e-20 0.0505604)
(1.24682 -1.86398e-20 0.0748361)
(1.2376 5.78481e-20 0.103325)
(1.23167 -2.08854e-20 0.135988)
(1.23061 2.24819e-20 0.171924)
(1.23555 1.57218e-22 0.209775)
(1.24688 2.64664e-20 0.246434)
(1.26438 0 0.281523)
(1.28852 -3.183e-19 0.314507)
(1.3184 1.36148e-19 0.342902)
(1.35096 7.62152e-20 0.364113)
(1.38458 0 0.378496)
(1.41854 1.84222e-19 0.386937)
(1.45107 0 0.38955)
(1.48213 -2.06686e-19 0.387465)
(1.51038 0 0.381344)
(1.53581 2.35262e-19 0.371952)
(1.55864 1.12465e-21 0.360157)
(1.57849 5.09146e-19 0.346488)
(1.59588 -2.58737e-19 0.331413)
(1.61059 2.72236e-19 0.315502)
(1.62298 -2.55811e-21 0.29896)
(1.63329 2.78725e-19 0.282086)
(1.64162 5.66302e-19 0.265076)
(1.64823 2.84818e-19 0.248018)
(1.65319 2.88523e-19 0.231102)
(1.65672 1.44874e-19 0.214327)
(1.65888 -2.92779e-19 0.197832)
(1.65982 1.45173e-19 0.181589)
(1.65963 5.88572e-19 0.165659)
(1.65842 -2.91848e-19 0.150037)
(1.65624 -3.6797e-19 0.134711)
(1.65315 -9.86981e-23 0.119687)
(1.6491 6.5677e-19 0.104267)
(1.64434 1.16669e-19 0.0898445)
(1.32863 0 -0.0240323)
(1.32096 1.556e-20 -0.0142702)
(1.31187 0 -0.00354269)
(1.30189 0 0.00871132)
(1.29137 -3.87017e-20 0.0229952)
(1.28072 -5.65024e-20 0.0397282)
(1.27034 -3.41907e-20 0.0595414)
(1.26105 -3.60908e-20 0.0828239)
(1.25381 0 0.109775)
(1.24991 -2.01262e-20 0.140006)
(1.25048 2.15292e-20 0.172763)
(1.2563 -4.80704e-20 0.205705)
(1.26747 0 0.238586)
(1.28476 1.09744e-19 0.271019)
(1.308 -2.38973e-19 0.300786)
(1.33503 -1.34642e-19 0.324869)
(1.36439 -7.27457e-20 0.343104)
(1.39534 7.73693e-20 0.355912)
(1.42607 0 0.36297)
(1.4563 1.79839e-19 0.365208)
(1.48454 0 0.36299)
(1.51052 -3.09656e-21 0.357053)
(1.53429 -2.17327e-19 0.348257)
(1.55534 2.19394e-19 0.337113)
(1.57405 2.30949e-19 0.324175)
(1.59016 -2.34539e-19 0.310021)
(1.60394 -2.39945e-19 0.294928)
(1.61563 2.09404e-21 0.279248)
(1.62527 -7.42007e-19 0.263214)
(1.63313 -1.00241e-18 0.246959)
(1.63928 -5.35225e-23 0.230696)
(1.64391 -7.61514e-19 0.214454)
(1.64711 -2.57496e-19 0.198387)
(1.64903 0 0.182487)
(1.64974 -2.60426e-19 0.166827)
(1.64935 2.58945e-19 0.151412)
(1.64793 2.6111e-19 0.136239)
(1.64555 6.50403e-20 0.121317)
(1.64217 -3.06637e-19 0.105981)
(1.63799 -1.36838e-19 0.0915601)
(1.34244 0 -0.0226434)
(1.33574 -3.21421e-20 -0.0141739)
(1.32783 -3.49349e-21 -0.00494962)
(1.31913 -2.15168e-20 0.00547655)
(1.3099 0 0.0175008)
(1.30043 4.43152e-20 0.031455)
(1.29098 1.49729e-20 0.0478664)
(1.28209 4.88673e-20 0.0671036)
(1.27444 -1.74865e-20 0.0894525)
(1.26904 0 0.114811)
(1.26687 -3.97662e-20 0.142819)
(1.26881 -4.90047e-22 0.171797)
(1.27515 0 0.201669)
(1.28677 -9.84829e-20 0.232279)
(1.304 5.14898e-20 0.261821)
(1.32557 1.16794e-19 0.287227)
(1.35029 6.1852e-20 0.307987)
(1.37756 1.3829e-19 0.324134)
(1.40571 -1.45247e-19 0.334955)
(1.43431 1.55028e-19 0.341118)
(1.46181 0 0.342646)
(1.48774 -1.76507e-19 0.34017)
(1.51196 1.84487e-19 0.334478)
(1.53381 0 0.326023)
(1.55356 3.95703e-19 0.315411)
(1.57085 -2.09177e-19 0.3032)
(1.58588 -4.22228e-19 0.289737)
(1.59883 4.33082e-19 0.275417)
(1.60971 2.20445e-19 0.260503)
(1.61879 1.33472e-18 0.24518)
(1.62609 -6.75323e-19 0.229679)
(1.63182 6.80464e-19 0.214064)
(1.63605 -2.2647e-19 0.198506)
(1.63894 -2.27998e-19 0.183018)
(1.64055 0 0.167687)
(1.641 0 0.152527)
(1.64036 0 0.137549)
(1.63868 -5.80372e-20 0.122763)
(1.63597 8.20847e-20 0.107536)
(1.63237 9.17686e-20 0.0931422)
(1.35469 -6.74742e-21 -0.0214362)
(1.3488 1.32545e-20 -0.0140274)
(1.34185 0 -0.00601676)
(1.33421 2.62402e-20 0.00295851)
(1.32608 -2.72602e-20 0.013215)
(1.31767 0 0.0250168)
(1.30912 0 0.0387986)
(1.30083 -4.47481e-20 0.0548827)
(1.29328 -1.63759e-20 0.073566)
(1.28722 3.3682e-20 0.0948899)
(1.28345 1.0541e-19 0.11873)
(1.28282 -3.86067e-20 0.143913)
(1.28567 4.0757e-20 0.170507)
(1.29285 4.32681e-20 0.198579)
(1.30501 -9.44125e-20 0.22677)
(1.32157 -5.18174e-20 0.252223)
(1.34168 5.48403e-20 0.274256)
(1.36497 1.20524e-19 0.292645)
(1.39 0 0.306384)
(1.41634 -2.75878e-19 0.315873)
(1.44245 2.94709e-19 0.320797)
(1.46771 3.10417e-19 0.321623)
(1.49186 -3.2616e-19 0.319014)
(1.51408 -3.40735e-19 0.313316)
(1.53454 -3.53658e-19 0.305151)
(1.55274 0 0.295032)
(1.56882 1.87677e-19 0.283354)
(1.58289 -1.92711e-19 0.270541)
(1.59491 0 0.256888)
(1.60513 -3.98645e-19 0.242622)
(1.61354 4.05102e-19 0.227995)
(1.62034 2.03047e-19 0.213106)
(1.62559 4.11371e-19 0.198142)
(1.62944 -4.09901e-19 0.183139)
(1.63196 2.0716e-19 0.1682)
(1.63324 0 0.15335)
(1.63338 -2.0827e-19 0.138612)
(1.63242 0 0.124)
(1.63039 -2.21568e-19 0.108913)
(1.62738 2.82183e-20 0.0945746)
(1.36565 6.25989e-21 -0.0203629)
(1.36043 0 -0.0138371)
(1.35429 0 -0.00682284)
(1.34754 -6.20366e-21 0.000978877)
(1.34033 3.15012e-20 0.00982471)
(1.33284 0 0.0199269)
(1.32514 1.37134e-20 0.0316438)
(1.31752 1.40918e-20 0.0452479)
(1.31031 2.89822e-20 0.0610142)
(1.30409 0 0.079048)
(1.29948 3.3351e-20 0.0993518)
(1.29724 3.5414e-20 0.121115)
(1.29769 0 0.144504)
(1.30156 0 0.169757)
(1.30966 8.42634e-20 0.195919)
(1.32189 -9.34219e-20 0.220485)
(1.33774 0 0.242744)
(1.35706 1.09954e-21 0.262341)
(1.37873 -1.13165e-19 0.278102)
(1.40235 1.24229e-19 0.290198)
(1.42655 -3.94508e-19 0.298017)
(1.45061 -2.73624e-19 0.301837)
(1.47417 -5.81094e-19 0.302153)
(1.49633 7.60921e-19 0.299177)
(1.51711 -1.58309e-19 0.2935)
(1.53593 1.63411e-19 0.285563)
(1.55282 -1.68624e-19 0.275784)
(1.56784 3.45167e-19 0.264604)
(1.58087 5.25529e-19 0.252336)
(1.59213 0 0.239244)
(1.60158 1.8236e-19 0.225599)
(1.6094 -5.45533e-19 0.211533)
(1.61564 -7.41697e-19 0.19725)
(1.62043 1.85572e-19 0.182809)
(1.62384 5.61349e-19 0.168328)
(1.62597 0 0.153846)
(1.62689 7.86057e-22 0.139397)
(1.62666 2.35637e-19 0.125004)
(1.62531 -4.40205e-20 0.110092)
(1.6229 -9.87533e-20 0.0958404)
(1.3755 0 -0.0193901)
(1.37085 0 -0.0136084)
(1.36539 0 -0.00742395)
(1.35939 0 -0.000586984)
(1.35298 0 0.00711349)
(1.34628 -1.22237e-20 0.0158501)
(1.33935 -3.78522e-20 0.0259196)
(1.33239 0 0.0375496)
(1.32565 5.5327e-20 0.0509824)
(1.31955 -2.89025e-20 0.0663451)
(1.31458 -2.96781e-20 0.0837016)
(1.3114 -6.60254e-20 0.102492)
(1.31025 0 0.122937)
(1.31177 0 0.145379)
(1.31675 0 0.169193)
(1.32542 -8.57456e-20 0.192276)
(1.33755 1.79591e-19 0.213972)
(1.35316 -4.89405e-22 0.2339)
(1.37146 3.11487e-19 0.250836)
(1.39215 -4.37139e-19 0.264782)
(1.41407 1.18592e-19 0.274905)
(1.4365 2.47613e-19 0.281293)
(1.45902 1.30326e-19 0.284259)
(1.48069 -4.12004e-19 0.283862)
(1.50141 1.42324e-19 0.280627)
(1.52053 1.48375e-19 0.274894)
(1.53797 1.49052e-19 0.267082)
(1.55372 1.54995e-19 0.257625)
(1.5676 -2.13358e-21 0.246841)
(1.57977 0 0.235026)
(1.59017 0 0.222463)
(1.59895 1.65804e-19 0.209313)
(1.60613 5.05038e-19 0.195795)
(1.61184 0 0.181993)
(1.61613 -6.81836e-19 0.168038)
(1.61908 2.54132e-19 0.153985)
(1.62079 -8.4956e-20 0.139879)
(1.62128 -1.29204e-19 0.12575)
(1.62063 -4.01615e-20 0.111053)
(1.61883 9.00416e-20 0.0969223)
(1.38442 2.82364e-21 -0.0184937)
(1.38025 -2.82895e-21 -0.013346)
(1.37537 -2.24806e-20 -0.00786118)
(1.37001 2.24964e-20 -0.00182844)
(1.36428 0 0.00492787)
(1.35827 -2.33926e-20 0.0125499)
(1.35202 2.37586e-20 0.0212852)
(1.34569 0 0.0313234)
(1.33944 -5.12774e-20 0.0428733)
(1.33362 0 0.0560631)
(1.32859 0 0.0709815)
(1.32491 -3.14833e-20 0.0872386)
(1.32277 3.1885e-20 0.105075)
(1.32266 -6.83253e-20 0.124886)
(1.32533 1.43922e-19 0.146291)
(1.33119 -7.82605e-20 0.167571)
(1.34019 -8.10856e-20 0.188175)
(1.35251 -2.64956e-19 0.207757)
(1.36762 -1.89178e-19 0.225137)
(1.38537 1.98636e-19 0.240217)
(1.40483 -1.08003e-19 0.252024)
(1.42532 1.10778e-19 0.260484)
(1.44643 0 0.265737)
(1.46723 2.48316e-19 0.267684)
(1.48753 2.5503e-19 0.266757)
(1.50663 -5.3697e-19 0.26318)
(1.52435 -4.10101e-19 0.257345)
(1.54059 -1.40665e-19 0.249657)
(1.55514 -1.46965e-19 0.240429)
(1.56808 4.39186e-19 0.229972)
(1.57932 0 0.218574)
(1.58897 3.00731e-19 0.206424)
(1.59703 3.0617e-19 0.193752)
(1.6036 -1.53904e-19 0.180663)
(1.60874 6.23672e-19 0.167302)
(1.61252 -4.66841e-19 0.153739)
(1.61499 2.3625e-19 0.140031)
(1.61622 7.85536e-20 0.126215)
(1.61627 2.62139e-19 0.111777)
(1.61509 4.10187e-20 0.0978035)
(1.3925 -2.69537e-21 -0.0176572)
(1.38875 -1.89605e-20 -0.0130542)
(1.38438 -2.00113e-22 -0.00816558)
(1.37957 -3.20752e-20 -0.00281137)
(1.37442 -1.08761e-20 0.00315627)
(1.36902 2.20354e-20 0.00985586)
(1.36338 0 0.0174953)
(1.35762 -2.39707e-20 0.0262333)
(1.35187 -7.38885e-20 0.0362483)
(1.34639 2.56722e-20 0.0476602)
(1.34148 -2.68788e-20 0.0605635)
(1.33758 5.68505e-20 0.0746833)
(1.33485 0 0.0902586)
(1.33367 6.2863e-20 0.107697)
(1.33468 8.66712e-22 0.126789)
(1.3384 7.20897e-20 0.146155)
(1.34487 0 0.165358)
(1.35437 -7.20184e-22 0.184122)
(1.36662 2.58769e-19 0.20137)
(1.38156 0 0.216957)
(1.39852 1.95701e-19 0.229859)
(1.4169 2.03711e-19 0.239874)
(1.43635 0 0.246995)
(1.45597 -2.27165e-19 0.25098)
(1.47553 4.64803e-19 0.252153)
(1.49429 4.76674e-21 0.250615)
(1.51201 2.50995e-21 0.246708)
(1.52852 0 0.240791)
(1.54353 -1.5621e-21 0.233153)
(1.55708 -2.69604e-19 0.224109)
(1.56903 -2.73504e-19 0.213942)
(1.57945 -1.5013e-21 0.202863)
(1.58831 -1.4263e-19 0.191107)
(1.5957 4.21565e-19 0.178801)
(1.60164 2.85419e-19 0.166099)
(1.6062 -2.85269e-19 0.153086)
(1.60944 -2.88395e-19 0.139831)
(1.61139 0 0.126378)
(1.61214 -1.73009e-19 0.112244)
(1.61158 1.12912e-19 0.098468)
(1.39987 0 -0.0168683)
(1.39648 2.05983e-20 -0.0127373)
(1.39254 3.0648e-20 -0.00836127)
(1.38821 -2.16574e-22 -0.0035855)
(1.38358 -3.78931e-23 0.00171574)
(1.3787 -3.18353e-20 0.00764239)
(1.3736 8.57897e-23 0.0143705)
(1.36836 9.00356e-20 0.0220334)
(1.36309 6.9986e-20 0.0307835)
(1.35798 4.91787e-20 0.0407291)
(1.35328 -5.0816e-20 0.0519614)
(1.34935 5.41978e-20 0.0642836)
(1.34631 -5.66035e-20 0.0779207)
(1.34444 3.4988e-22 0.0932688)
(1.3443 6.32119e-20 0.110231)
(1.34642 6.77644e-20 0.127709)
(1.35091 7.13986e-20 0.145372)
(1.35808 2.27184e-19 0.163024)
(1.36783 -7.96502e-20 0.179721)
(1.38022 0 0.195311)
(1.39476 3.43052e-22 0.208785)
(1.411 2.40697e-23 0.21986)
(1.42863 -1.98851e-19 0.228413)
(1.44686 2.05247e-19 0.234087)
(1.46541 2.14351e-19 0.2371)
(1.48357 2.1659e-21 0.237425)
(1.50102 -2.28686e-19 0.235342)
(1.51755 -4.75161e-19 0.231148)
(1.53282 -2.12693e-21 0.225096)
(1.5468 -2.46412e-19 0.217489)
(1.55931 2.52946e-19 0.208597)
(1.57038 -5.0888e-19 0.198641)
(1.57996 -1.30244e-21 0.18786)
(1.58809 -2.6052e-19 0.176397)
(1.59479 -3.96826e-19 0.164415)
(1.60011 3.9624e-19 0.15201)
(1.60408 2.67518e-19 0.139262)
(1.60674 -6.70198e-20 0.126222)
(1.60818 6.39042e-20 0.11244)
(1.60825 -2.41469e-22 0.0989007)
(1.4066 2.48501e-21 -0.0161187)
(1.40353 2.47885e-21 -0.0123992)
(1.39997 -2.4757e-20 -0.00846739)
(1.39606 9.70832e-21 -0.00418914)
(1.39187 -3.15092e-23 0.000543331)
(1.38746 3.07906e-20 0.00581526)
(1.38284 0 0.0117767)
(1.37807 0 0.0185406)
(1.37324 -1.11785e-19 0.0262373)
(1.3685 -2.30518e-20 0.0349629)
(1.36406 -4.87517e-20 0.0448018)
(1.36021 -5.16999e-20 0.0556105)
(1.35705 5.27269e-20 0.0675944)
(1.35477 -2.25161e-19 0.0811237)
(1.35385 1.77754e-19 0.0961729)
(1.3548 1.2779e-19 0.11187)
(1.35776 -1.31408e-19 0.127975)
(1.36306 -6.91285e-20 0.144362)
(1.37072 0 0.16023)
(1.38084 0 0.175447)
(1.39316 -1.66374e-19 0.189062)
(1.40731 2.14333e-22 0.200753)
(1.42307 -1.15496e-21 0.210319)
(1.43976 3.81471e-19 0.217321)
(1.45711 -5.91558e-19 0.221876)
(1.47444 -2.65427e-21 0.223846)
(1.49139 2.10925e-19 0.223436)
(1.50773 2.19331e-19 0.220874)
(1.52304 4.46244e-19 0.216364)
(1.53728 -2.26456e-19 0.210185)
(1.5502 2.34049e-19 0.202585)
(1.5618 2.37845e-19 0.193788)
(1.57198 -9.5815e-19 0.184026)
(1.58077 0 0.173456)
(1.58817 0 0.162245)
(1.59419 2.44302e-19 0.150501)
(1.59887 -2.47155e-19 0.138311)
(1.60222 0 0.125734)
(1.60434 0 0.112348)
(1.60504 -2.22313e-22 0.0990884)
(1.41276 0 -0.0154022)
(1.40998 4.79987e-21 -0.0120436)
(1.40675 1.42342e-20 -0.00849937)
(1.40321 1.90239e-20 -0.0046524)
(1.39942 1.93292e-20 -0.00040959)
(1.39542 -5.90311e-20 0.00430243)
(1.39122 0 0.00961238)
(1.38687 -2.08307e-20 0.0156168)
(1.38244 8.58614e-20 0.0224273)
(1.37807 -2.24558e-20 0.0301288)
(1.37391 -2.03221e-22 0.0387974)
(1.37021 9.82775e-20 0.0483271)
(1.36704 1.01529e-19 0.0589019)
(1.36454 -1.07838e-19 0.0708596)
(1.36311 -5.52535e-20 0.0842175)
(1.36323 -5.93389e-20 0.0982822)
(1.36504 -6.22935e-20 0.112883)
(1.36886 -1.3179e-19 0.127956)
(1.37479 0 0.142835)
(1.38297 0 0.157417)
(1.39329 0 0.17084)
(1.40548 -1.61721e-19 0.182773)
(1.41941 -9.22623e-22 0.192974)
(1.43451 1.05891e-21 0.200952)
(1.45053 2.24314e-21 0.206741)
(1.46686 -1.90324e-19 0.210111)
(1.48313 5.87605e-19 0.211189)
(1.49906 0 0.210129)
(1.51423 -4.15645e-19 0.207082)
(1.52855 2.11651e-19 0.202292)
(1.54172 6.46812e-19 0.195973)
(1.55371 6.55386e-19 0.188346)
(1.56439 6.69626e-19 0.179631)
(1.57375 -4.46622e-19 0.169991)
(1.58177 0 0.159594)
(1.58845 1.13271e-19 0.148556)
(1.59379 4.61798e-19 0.136971)
(1.5978 -1.15535e-19 0.124902)
(1.60059 0 0.111959)
(1.60191 -6.08775e-20 0.0990199)
(1.41842 0 -0.0147146)
(1.41589 2.33133e-20 -0.0116741)
(1.41295 -4.62696e-21 -0.00846981)
(1.40974 0 -0.00499917)
(1.4063 -1.8737e-20 -0.00118115)
(1.40266 5.74664e-20 0.00304799)
(1.39884 -3.92433e-20 0.00779939)
(1.39487 2.01418e-20 0.0131561)
(1.39082 -6.23025e-20 0.0192141)
(1.38679 8.64343e-20 0.0260485)
(1.3829 -8.96274e-20 0.0337267)
(1.37939 -4.68766e-20 0.0421699)
(1.37629 -4.89372e-20 0.051541)
(1.3737 1.01781e-19 0.0621435)
(1.37196 -1.60275e-19 0.0740192)
(1.37149 5.69522e-20 0.0866129)
(1.37246 1.18643e-19 0.0998082)
(1.37513 -1.25292e-19 0.113587)
(1.37966 1.31217e-19 0.127403)
(1.38621 0 0.141186)
(1.39478 1.46168e-19 0.154177)
(1.4052 -3.01001e-19 0.166056)
(1.41739 0 0.176567)
(1.43091 3.31303e-19 0.185199)
(1.44554 -1.69537e-19 0.191923)
(1.46076 0 0.196435)
(1.47618 -5.49073e-19 0.198793)
(1.49154 1.87705e-19 0.19908)
(1.5064 -3.8549e-19 0.197385)
(1.52062 1.98041e-19 0.193914)
(1.53389 -2.02255e-19 0.188842)
(1.54614 -1.76745e-21 0.182375)
(1.5572 -2.08081e-19 0.174715)
(1.56704 4.17945e-19 0.166027)
(1.5756 6.35628e-19 0.156476)
(1.58286 1.0495e-19 0.146182)
(1.58882 1.06678e-19 0.135242)
(1.59346 -2.70398e-19 0.123723)
(1.59689 7.8172e-20 0.111264)
(1.59882 -2.78674e-20 0.0986865)
(1.42362 2.25226e-21 -0.0140525)
(1.42131 -1.5768e-20 -0.0112935)
(1.41864 1.35155e-20 -0.00838907)
(1.41572 -2.70347e-20 -0.00524871)
(1.41259 -2.74422e-20 -0.00180159)
(1.40928 -3.69988e-20 0.00200807)
(1.40579 -2.52183e-22 0.00627677)
(1.40217 0 0.0110764)
(1.39846 -4.03878e-20 0.0164902)
(1.39474 4.19384e-20 0.0225841)
(1.39113 4.29755e-20 0.0294181)
(1.38782 0 0.0369328)
(1.38484 4.6662e-20 0.0452717)
(1.38224 9.85291e-20 0.054705)
(1.38033 1.01572e-19 0.0652868)
(1.37947 0 0.0765698)
(1.37981 5.82937e-22 0.088477)
(1.3816 3.31433e-22 0.101023)
(1.38501 -2.49191e-19 0.113764)
(1.39023 2.59043e-19 0.126662)
(1.3973 0 0.139058)
(1.40613 -1.42621e-19 0.15066)
(1.41673 -1.49689e-19 0.161218)
(1.42872 0 0.170224)
(1.44198 -1.60594e-19 0.177605)
(1.45601 -1.67679e-19 0.183009)
(1.47049 1.69575e-19 0.18643)
(1.48514 1.7559e-19 0.187888)
(1.49954 5.40912e-19 0.187413)
(1.51351 5.51549e-19 0.185167)
(1.52674 -7.54036e-19 0.181282)
(1.53911 -1.92923e-19 0.175944)
(1.55043 7.77343e-19 0.16933)
(1.56063 -2.42332e-22 0.161601)
(1.56965 -3.9762e-19 0.152914)
(1.57743 -6.99329e-19 0.14339)
(1.58395 -1.01746e-19 0.133128)
(1.58918 7.37367e-22 0.122196)
(1.59323 -2.20417e-19 0.11026)
(1.59575 -7.74028e-20 0.0980825)
(1.42841 0 -0.0134137)
(1.4263 0 -0.0109048)
(1.42387 -8.70844e-21 -0.00826574)
(1.42121 -8.86833e-21 -0.00541666)
(1.41835 3.54257e-20 -0.00229521)
(1.41533 3.62585e-20 0.00114773)
(1.41215 -2.21662e-22 0.00499637)
(1.40884 0 0.00931341)
(1.40543 7.80517e-20 0.0141713)
(1.40202 -8.09833e-20 0.0196283)
(1.39867 4.17823e-20 0.0257375)
(1.39557 -4.38703e-20 0.0324539)
(1.39272 1.36012e-19 0.0399036)
(1.39018 -1.41475e-19 0.0483254)
(1.38818 0 0.0577789)
(1.38707 0 0.067901)
(1.38697 0 0.078643)
(1.38809 0 0.0900403)
(1.39063 -1.1889e-19 0.101736)
(1.39475 6.55461e-22 0.113717)
(1.40055 7.07797e-22 0.125421)
(1.40801 8.75603e-22 0.136589)
(1.41716 4.05885e-22 0.146988)
(1.42774 -1.45434e-19 0.156136)
(1.43965 -1.51121e-19 0.163928)
(1.45249 4.70217e-19 0.169988)
(1.46596 -8.03201e-19 0.174259)
(1.47981 6.62728e-19 0.176704)
(1.49363 -8.46846e-19 0.177303)
(1.50722 -3.46759e-19 0.176169)
(1.52027 3.54545e-19 0.173392)
(1.53263 -1.30552e-21 0.16913)
(1.54409 -5.49541e-19 0.163535)
(1.55457 -1.85302e-19 0.156756)
(1.56395 0 0.148938)
(1.57217 4.69119e-19 0.140202)
(1.57919 -4.74656e-19 0.130643)
(1.58496 1.9164e-19 0.120326)
(1.58958 3.70004e-19 0.108948)
(1.59267 -4.48555e-22 0.097205)
(1.43284 0 -0.0127963)
(1.43091 -8.5689e-21 -0.0105101)
(1.42869 3.41894e-20 -0.00810697)
(1.42625 8.51229e-21 -0.00551588)
(1.42365 0 -0.00268178)
(1.42089 -7.05987e-20 0.000438859)
(1.41798 3.59708e-20 0.00391982)
(1.41495 0 0.00781607)
(1.41183 0 0.0121911)
(1.40868 1.42898e-22 0.0170963)
(1.40559 8.12636e-20 0.0225789)
(1.40269 -4.25276e-20 0.0286048)
(1.4 -8.73163e-20 0.0352845)
(1.39754 -9.16748e-20 0.0428285)
(1.39553 0 0.0512972)
(1.39426 -1.00516e-19 0.0603937)
(1.39385 1.03471e-19 0.0700894)
(1.39448 3.86183e-22 0.0804329)
(1.39632 -6.43988e-22 0.0911369)
(1.39956 1.17605e-19 0.102207)