# Force coefficients
# liftDir    : (0.000000e+00 0.000000e+00 1.000000e+00)
# dragDir    : (1.000000e+00 0.000000e+00 0.000000e+00)
# pitchAxis  : (0.000000e+00 1.000000e+00 0.000000e+00)
# magUInf    : 1.500000e+00
# lRef       : 1.000000e+00
# Aref       : 1.000000e-01
# CofR       : (2.500000e-01 0.000000e+00 0.000000e+00)
# Time       	Cm           	Cd           	Cl           	Cl(f)        	Cl(r)        
1            	-1.631562e+01	4.619790e+01	1.000570e+01	-1.131277e+01	2.131847e+01
2            	-1.341891e+01	1.836663e+01	3.245814e+00	-1.179600e+01	1.504182e+01
3            	-1.287121e-01	-1.390199e+01	-6.262775e+00	-3.260100e+00	-3.002676e+00
4            	7.232374e+00	-1.005357e+01	-6.677359e+00	3.893695e+00	-1.057105e+01
5            	5.853882e+00	-5.849717e-02	-2.844968e-01	5.711634e+00	-5.996131e+00
6            	8.819824e-01	2.076360e+00	6.087113e+00	3.925539e+00	2.161574e+00
7            	-2.240386e+00	1.224761e+00	6.674067e+00	1.096648e+00	5.577419e+00
8            	-2.241977e+00	8.185567e-01	1.519769e+00	-1.482092e+00	3.001861e+00
9            	-8.127147e-01	6.341617e-01	-3.091650e+00	-2.358540e+00	-7.331104e-01
10           	4.788758e-01	-1.589911e-01	-4.274303e+00	-1.658276e+00	-2.616028e+00
11           	6.582728e-01	-2.926146e-01	-1.882050e+00	-2.827524e-01	-1.599298e+00
12           	2.428921e-01	-6.699624e-02	1.291887e+00	8.888358e-01	4.030516e-01
13           	-2.430278e-01	4.427181e-01	2.530846e+00	1.022395e+00	1.508451e+00
14           	-3.815215e-01	6.046386e-01	1.485088e+00	3.610225e-01	1.124065e+00
15           	-2.367684e-01	3.102193e-01	-3.868785e-01	-4.302076e-01	4.332914e-02
16           	-2.921322e-02	2.139386e-02	-1.083775e+00	-5.711008e-01	-5.126744e-01
17           	8.366139e-02	-8.307322e-02	-6.845124e-01	-2.585948e-01	-4.259176e-01
18           	7.863420e-02	4.701991e-02	2.401486e-01	1.987085e-01	4.144009e-02
19           	-6.361694e-03	1.816852e-01	7.278226e-01	3.575496e-01	3.702730e-01
20           	-6.509230e-02	2.074382e-01	6.102412e-01	2.400283e-01	3.702129e-01
21           	-8.728450e-02	1.719243e-01	2.107436e-01	1.808727e-02	1.926563e-01
22           	-5.512805e-02	1.161673e-01	-1.240880e-01	-1.171721e-01	-6.915946e-03
23           	-2.388033e-02	1.204940e-01	-1.366122e-01	-9.218643e-02	-4.442577e-02
24           	-7.834601e-03	1.301459e-01	2.976301e-02	7.046901e-03	2.271610e-02
25           	-1.882398e-02	1.344196e-01	1.880997e-01	7.522589e-02	1.128739e-01
26           	-4.281781e-02	1.264288e-01	2.256534e-01	7.000891e-02	1.556445e-01
27           	-5.219441e-02	1.115827e-01	1.659837e-01	3.079745e-02	1.351863e-01
28           	-4.338955e-02	1.054744e-01	9.558762e-02	4.404259e-03	9.118337e-02
29           	-2.813536e-02	1.116884e-01	6.898500e-02	6.357145e-03	6.262786e-02
30           	-1.998895e-02	1.161353e-01	8.326614e-02	2.164412e-02	6.162202e-02
31           	-2.245880e-02	1.150717e-01	1.152913e-01	3.518685e-02	8.010445e-02
32           	-2.954681e-02	1.078127e-01	1.352346e-01	3.807047e-02	9.716409e-02
33           	-3.405109e-02	1.007607e-01	1.315119e-01	3.170484e-02	9.980702e-02
34           	-3.177273e-02	9.651139e-02	1.153569e-01	2.590573e-02	8.945120e-02
35           	-2.612751e-02	9.866313e-02	1.043131e-01	2.602904e-02	7.828406e-02
36           	-2.257209e-02	1.031055e-01	1.044797e-01	2.966775e-02	7.481193e-02
37           	-2.276249e-02	1.031963e-01	1.135923e-01	3.403363e-02	7.955862e-02
38           	-2.503565e-02	9.921184e-02	1.203791e-01	3.515388e-02	8.522519e-02
39           	-2.652119e-02	9.307356e-02	1.208434e-01	3.390050e-02	8.694289e-02
40           	-2.566234e-02	9.076263e-02	1.125500e-01	3.061266e-02	8.193734e-02
41           	-2.355364e-02	9.121666e-02	1.065013e-01	2.969699e-02	7.680427e-02
42           	-2.197792e-02	9.153267e-02	1.068259e-01	3.143504e-02	7.539088e-02
43           	-2.168452e-02	9.205364e-02	1.116409e-01	3.413591e-02	7.750496e-02
44           	-2.226699e-02	8.970341e-02	1.162390e-01	3.585249e-02	8.038646e-02
45           	-2.256616e-02	8.736691e-02	1.171704e-01	3.601903e-02	8.115134e-02
46           	-2.206251e-02	8.599652e-02	1.143947e-01	3.513482e-02	7.925983e-02
47           	-2.106201e-02	8.501862e-02	1.105127e-01	3.419434e-02	7.631836e-02
48           	-2.032243e-02	8.380407e-02	1.088370e-01	3.409606e-02	7.474092e-02
49           	-2.002730e-02	8.369616e-02	1.089335e-01	3.443943e-02	7.449404e-02
50           	-1.999535e-02	8.311707e-02	1.106892e-01	3.534926e-02	7.533997e-02
51           	-1.997742e-02	8.197300e-02	1.122083e-01	3.612670e-02	7.608155e-02
52           	-1.971013e-02	8.062402e-02	1.126358e-01	3.660775e-02	7.602801e-02
53           	-1.921716e-02	7.954501e-02	1.122616e-01	3.691366e-02	7.534798e-02
54           	-1.864203e-02	7.869378e-02	1.114338e-01	3.707487e-02	7.435893e-02
55           	-1.822907e-02	7.804747e-02	1.099790e-01	3.676042e-02	7.321856e-02
56           	-1.807314e-02	7.761646e-02	1.100739e-01	3.696383e-02	7.311011e-02
57           	-1.799578e-02	7.697937e-02	1.102819e-01	3.714515e-02	7.313670e-02
58           	-1.786313e-02	7.592552e-02	1.103227e-01	3.729822e-02	7.302448e-02
59           	-1.759432e-02	7.522232e-02	1.103211e-01	3.756623e-02	7.275487e-02
60           	-1.719979e-02	7.431221e-02	1.100307e-01	3.781558e-02	7.221515e-02
61           	-1.689810e-02	7.384171e-02	1.101476e-01	3.817569e-02	7.197189e-02
62           	-1.668393e-02	7.332829e-02	1.101785e-01	3.840532e-02	7.177318e-02
63           	-1.651843e-02	7.262452e-02	1.098247e-01	3.839393e-02	7.143079e-02
64           	-1.636698e-02	7.200250e-02	1.093622e-01	3.831410e-02	7.104806e-02
65           	-1.617668e-02	7.154649e-02	1.092810e-01	3.846380e-02	7.081716e-02
66           	-1.593695e-02	7.079177e-02	1.090880e-01	3.860707e-02	7.048096e-02
67           	-1.569626e-02	7.014959e-02	1.089403e-01	3.877391e-02	7.016642e-02
68           	-1.549850e-02	6.969293e-02	1.088844e-01	3.894370e-02	6.994070e-02
69           	-1.533188e-02	6.924433e-02	1.089056e-01	3.912093e-02	6.978469e-02
70           	-1.518361e-02	6.876406e-02	1.088845e-01	3.925865e-02	6.962587e-02
71           	-1.504641e-02	6.835274e-02	1.089664e-01	3.943677e-02	6.952960e-02
72           	-1.487608e-02	6.784540e-02	1.087728e-01	3.951034e-02	6.926250e-02
73           	-1.468045e-02	6.727310e-02	1.084363e-01	3.953772e-02	6.889861e-02
74           	-1.449547e-02	6.675332e-02	1.080946e-01	3.955183e-02	6.854277e-02
75           	-1.430658e-02	6.616515e-02	1.076165e-01	3.950166e-02	6.811483e-02
76           	-1.419775e-02	6.589894e-02	1.076862e-01	3.964537e-02	6.804086e-02
77           	-1.405983e-02	6.549185e-02	1.077001e-01	3.979022e-02	6.790988e-02
78           	-1.392115e-02	6.509031e-02	1.077065e-01	3.993209e-02	6.777439e-02
79           	-1.380595e-02	6.478572e-02	1.077837e-01	4.008588e-02	6.769778e-02
80           	-1.363914e-02	6.425568e-02	1.074914e-01	4.010658e-02	6.738486e-02
81           	-1.349514e-02	6.386571e-02	1.072612e-01	4.013547e-02	6.712575e-02
82           	-1.338408e-02	6.357233e-02	1.072863e-01	4.025905e-02	6.702721e-02
83           	-1.325630e-02	6.315912e-02	1.070901e-01	4.028873e-02	6.680132e-02
84           	-1.314883e-02	6.284260e-02	1.070767e-01	4.038952e-02	6.668718e-02
85           	-1.301323e-02	6.242817e-02	1.067765e-01	4.037501e-02	6.640146e-02
86           	-1.290466e-02	6.214021e-02	1.067494e-01	4.047005e-02	6.627938e-02
87           	-1.279492e-02	6.181373e-02	1.066702e-01	4.054018e-02	6.613001e-02
88           	-1.268094e-02	6.146470e-02	1.065327e-01	4.058538e-02	6.594727e-02
89           	-1.253861e-02	6.106556e-02	1.062010e-01	4.056189e-02	6.563910e-02
90           	-1.243929e-02	6.082333e-02	1.062051e-01	4.066325e-02	6.554183e-02
91           	-1.233859e-02	6.051352e-02	1.061232e-01	4.072301e-02	6.540018e-02
92           	-1.225684e-02	6.026645e-02	1.061725e-01	4.082943e-02	6.534311e-02
93           	-1.217255e-02	5.998092e-02	1.061703e-01	4.091261e-02	6.525771e-02
94           	-1.207665e-02	5.966633e-02	1.060917e-01	4.096918e-02	6.512249e-02
95           	-1.194645e-02	5.929929e-02	1.058111e-01	4.095909e-02	6.485200e-02
96           	-1.185434e-02	5.908038e-02	1.057825e-01	4.103690e-02	6.474559e-02
97           	-1.177546e-02	5.884487e-02	1.057404e-01	4.109473e-02	6.464565e-02
98           	-1.170448e-02	5.859114e-02	1.056710e-01	4.113100e-02	6.453997e-02
99           	-1.162920e-02	5.833114e-02	1.055947e-01	4.116814e-02	6.442654e-02
100          	-1.154435e-02	5.806494e-02	1.055326e-01	4.122195e-02	6.431064e-02
101          	-1.145515e-02	5.779979e-02	1.054901e-01	4.128991e-02	6.420021e-02
102          	-1.137006e-02	5.754882e-02	1.054583e-01	4.135910e-02	6.409923e-02
103          	-1.129351e-02	5.731554e-02	1.054283e-01	4.142062e-02	6.400765e-02
104          	-1.122509e-02	5.709404e-02	1.054001e-01	4.147495e-02	6.392514e-02
105          	-1.116138e-02	5.687611e-02	1.053793e-01	4.152826e-02	6.385103e-02
106          	-1.109851e-02	5.665588e-02	1.053695e-01	4.158623e-02	6.378324e-02
107          	-1.103442e-02	5.643233e-02	1.053686e-01	4.164990e-02	6.371873e-02
108          	-1.096955e-02	5.620923e-02	1.053717e-01	4.171629e-02	6.365539e-02
109          	-1.090581e-02	5.599168e-02	1.053762e-01	4.178229e-02	6.359391e-02
110          	-1.084488e-02	5.578232e-02	1.053823e-01	4.184628e-02	6.353603e-02
111          	-1.078761e-02	5.558049e-02	1.053908e-01	4.190779e-02	6.348301e-02
112          	-1.073408e-02	5.538362e-02	1.054034e-01	4.196760e-02	6.343576e-02
113          	-1.068412e-02	5.518906e-02	1.054259e-01	4.202882e-02	6.339706e-02
114          	-1.063646e-02	5.499558e-02	1.054614e-01	4.209426e-02	6.336719e-02
115          	-1.058948e-02	5.480371e-02	1.055074e-01	4.216420e-02	6.334317e-02
116          	-1.054235e-02	5.461490e-02	1.055575e-01	4.223638e-02	6.332108e-02
117          	-1.049553e-02	5.443022e-02	1.056071e-01	4.230802e-02	6.329908e-02
118          	-1.045033e-02	5.424984e-02	1.056563e-01	4.237783e-02	6.327848e-02
119          	-1.040813e-02	5.407323e-02	1.057106e-01	4.244719e-02	6.326345e-02
120          	-1.037014e-02	5.389983e-02	1.057800e-01	4.251984e-02	6.326012e-02
121          	-1.033601e-02	5.372891e-02	1.058670e-01	4.259749e-02	6.326950e-02
122          	-1.031635e-02	5.356254e-02	1.060356e-01	4.270146e-02	6.333415e-02
123          	-1.028647e-02	5.339475e-02	1.061363e-01	4.278168e-02	6.335461e-02
124          	-1.024839e-02	5.322943e-02	1.061829e-01	4.284305e-02	6.333983e-02
125          	-1.022158e-02	5.306996e-02	1.062937e-01	4.292528e-02	6.336845e-02
126          	-1.019616e-02	5.291244e-02	1.064090e-01	4.300837e-02	6.340068e-02
127          	-1.017323e-02	5.275656e-02	1.065252e-01	4.308939e-02	6.343585e-02
128          	-1.014908e-02	5.260340e-02	1.066247e-01	4.316329e-02	6.346145e-02
129          	-1.013115e-02	5.245294e-02	1.067591e-01	4.324839e-02	6.351069e-02
130          	-1.011252e-02	5.230389e-02	1.068926e-01	4.333375e-02	6.355880e-02
131          	-1.009865e-02	5.215757e-02	1.070559e-01	4.342931e-02	6.362661e-02
132          	-1.008264e-02	5.201314e-02	1.072041e-01	4.351940e-02	6.368467e-02
133          	-1.007030e-02	5.187122e-02	1.073679e-01	4.361365e-02	6.375424e-02
134          	-1.005581e-02	5.173061e-02	1.075104e-01	4.369937e-02	6.381099e-02
135          	-1.004457e-02	5.159207e-02	1.076636e-01	4.378722e-02	6.387636e-02
136          	-1.003157e-02	5.145465e-02	1.077982e-01	4.386754e-02	6.393067e-02
137          	-1.002151e-02	5.131918e-02	1.079453e-01	4.395111e-02	6.399414e-02
138          	-1.000955e-02	5.118464e-02	1.080761e-01	4.402849e-02	6.404758e-02
139          	-9.996175e-03	5.105180e-02	1.081976e-01	4.410262e-02	6.409497e-02
140          	-9.989396e-03	5.092157e-02	1.083611e-01	4.419117e-02	6.416996e-02
141          	-9.982329e-03	5.079237e-02	1.085176e-01	4.427646e-02	6.424111e-02
142          	-9.973545e-03	5.066459e-02	1.086575e-01	4.435521e-02	6.430230e-02
143          	-9.966070e-03	5.053833e-02	1.088037e-01	4.443577e-02	6.436791e-02
144          	-9.961164e-03	5.041367e-02	1.089659e-01	4.452177e-02	6.444410e-02
145          	-9.958159e-03	5.029073e-02	1.091391e-01	4.461141e-02	6.452773e-02
146          	-9.955926e-03	5.016942e-02	1.093147e-01	4.470144e-02	6.461329e-02
147          	-9.953614e-03	5.004944e-02	1.094856e-01	4.478916e-02	6.469639e-02
148          	-9.950769e-03	4.993059e-02	1.096473e-01	4.487291e-02	6.477444e-02
149          	-9.947285e-03	4.981275e-02	1.097988e-01	4.495212e-02	6.484669e-02
150          	-9.943284e-03	4.969588e-02	1.099411e-01	4.502726e-02	6.491383e-02
151          	-9.938952e-03	4.957998e-02	1.100765e-01	4.509932e-02	6.497722e-02
152          	-9.934404e-03	4.946512e-02	1.102072e-01	4.516922e-02	6.503802e-02
153          	-9.929635e-03	4.935137e-02	1.103341e-01	4.523740e-02	6.509667e-02
154          	-9.924579e-03	4.923870e-02	1.104569e-01	4.530388e-02	6.515303e-02
155          	-9.919277e-03	4.912704e-02	1.105759e-01	4.536868e-02	6.520723e-02
156          	-9.914011e-03	4.901639e-02	1.106927e-01	4.543236e-02	6.526038e-02
157          	-9.908946e-03	4.890672e-02	1.108081e-01	4.549509e-02	6.531298e-02
158          	-9.905230e-03	4.879801e-02	1.109277e-01	4.555861e-02	6.536907e-02
159          	-9.899762e-03	4.869003e-02	1.110325e-01	4.561650e-02	6.541603e-02
160          	-9.894027e-03	4.858253e-02	1.111363e-01	4.567410e-02	6.546216e-02
161          	-9.889644e-03	4.847554e-02	1.112465e-01	4.573359e-02	6.551288e-02
162          	-9.884554e-03	4.836966e-02	1.113499e-01	4.579040e-02	6.555951e-02
163          	-9.878661e-03	4.826441e-02	1.114453e-01	4.584396e-02	6.560129e-02
164          	-9.871967e-03	4.815958e-02	1.115334e-01	4.589475e-02	6.563869e-02
165          	-9.865841e-03	4.805512e-02	1.116211e-01	4.594471e-02	6.567639e-02
166          	-9.857973e-03	4.795101e-02	1.116952e-01	4.598961e-02	6.570555e-02
167          	-9.852750e-03	4.784809e-02	1.117804e-01	4.603744e-02	6.574294e-02
168          	-9.848936e-03	4.774582e-02	1.118733e-01	4.608772e-02	6.578559e-02
169          	-9.845275e-03	4.764376e-02	1.119665e-01	4.613798e-02	6.582853e-02
170          	-9.840416e-03	4.754234e-02	1.120514e-01	4.618530e-02	6.586613e-02
171          	-9.835361e-03	4.744141e-02	1.121342e-01	4.623172e-02	6.590244e-02
172          	-9.829521e-03	4.734094e-02	1.122108e-01	4.627586e-02	6.593490e-02
173          	-9.823451e-03	4.724075e-02	1.122844e-01	4.631876e-02	6.596566e-02
174          	-9.817751e-03	4.714090e-02	1.123565e-01	4.636050e-02	6.599600e-02
175          	-9.812450e-03	4.704164e-02	1.124261e-01	4.640058e-02	6.602548e-02
176          	-9.807490e-03	4.694303e-02	1.124938e-01	4.643939e-02	6.605437e-02
177          	-9.802972e-03	4.684501e-02	1.125620e-01	4.647802e-02	6.608397e-02
178          	-9.799021e-03	4.674762e-02	1.126325e-01	4.651723e-02	6.611527e-02
179          	-9.795592e-03	4.665087e-02	1.127051e-01	4.655695e-02	6.614814e-02
180          	-9.792485e-03	4.655473e-02	1.127781e-01	4.659654e-02	6.618151e-02
181          	-9.789464e-03	4.645905e-02	1.128495e-01	4.663529e-02	6.621422e-02
182          	-9.786351e-03	4.636376e-02	1.129180e-01	4.667267e-02	6.624537e-02
183          	-9.783024e-03	4.626885e-02	1.129829e-01	4.670842e-02	6.627447e-02
184          	-9.779397e-03	4.617435e-02	1.130438e-01	4.674251e-02	6.630131e-02
185          	-9.775420e-03	4.608029e-02	1.131008e-01	4.677499e-02	6.632584e-02
186          	-9.771078e-03	4.598671e-02	1.131539e-01	4.680589e-02	6.634805e-02
187          	-9.766362e-03	4.589362e-02	1.132029e-01	4.683507e-02	6.636779e-02
188          	-9.761293e-03	4.580099e-02	1.132472e-01	4.686229e-02	6.638488e-02
189          	-9.755982e-03	4.570875e-02	1.132868e-01	4.688740e-02	6.639936e-02
190          	-9.750242e-03	4.561699e-02	1.133200e-01	4.690977e-02	6.641025e-02
191          	-9.743752e-03	4.552617e-02	1.133513e-01	4.693192e-02	6.641942e-02
192          	-9.737044e-03	4.543522e-02	1.133801e-01	4.695299e-02	6.642708e-02
193          	-9.730068e-03	4.534432e-02	1.134016e-01	4.697076e-02	6.643089e-02
194          	-9.722591e-03	4.525424e-02	1.134185e-01	4.698665e-02	6.643183e-02
195          	-9.714688e-03	4.516467e-02	1.134323e-01	4.700147e-02	6.643084e-02
196          	-9.706584e-03	4.507525e-02	1.134419e-01	4.701434e-02	6.642751e-02
197          	-9.698759e-03	4.498652e-02	1.134557e-01	4.702908e-02	6.642659e-02
198          	-9.690667e-03	4.489821e-02	1.134690e-01	4.704382e-02	6.642515e-02
199          	-9.682248e-03	4.481004e-02	1.134769e-01	4.705621e-02	6.642070e-02
200          	-9.673814e-03	4.472233e-02	1.134789e-01	4.706562e-02	6.641325e-02
201          	-9.665859e-03	4.463568e-02	1.134849e-01	4.707658e-02	6.640829e-02
202          	-9.657959e-03	4.454952e-02	1.134936e-01	4.708885e-02	6.640477e-02
203          	-9.649975e-03	4.446337e-02	1.134997e-01	4.709988e-02	6.639983e-02
204          	-9.641995e-03	4.437780e-02	1.135038e-01	4.710988e-02	6.639387e-02
205          	-9.634031e-03	4.429278e-02	1.135049e-01	4.711842e-02	6.638649e-02
206          	-9.625934e-03	4.420846e-02	1.135063e-01	4.712720e-02	6.637906e-02
207          	-9.617670e-03	4.412450e-02	1.135071e-01	4.713587e-02	6.637121e-02
208          	-9.609126e-03	4.404095e-02	1.135058e-01	4.714375e-02	6.636200e-02
209          	-9.600174e-03	4.395797e-02	1.135016e-01	4.715061e-02	6.635096e-02
210          	-9.590789e-03	4.387543e-02	1.134945e-01	4.715646e-02	6.633804e-02
211          	-9.581034e-03	4.379325e-02	1.134847e-01	4.716130e-02	6.632337e-02
212          	-9.570993e-03	4.371152e-02	1.134724e-01	4.716523e-02	6.630721e-02
213          	-9.560736e-03	4.363034e-02	1.134585e-01	4.716849e-02	6.628997e-02
214          	-9.550306e-03	4.354967e-02	1.134433e-01	4.717136e-02	6.627197e-02
215          	-9.539707e-03	4.346947e-02	1.134272e-01	4.717387e-02	6.625328e-02
216          	-9.528934e-03	4.338972e-02	1.134097e-01	4.717592e-02	6.623379e-02
217          	-9.518016e-03	4.331047e-02	1.133913e-01	4.717761e-02	6.621364e-02
218          	-9.507013e-03	4.323174e-02	1.133726e-01	4.717926e-02	6.619329e-02
219          	-9.495981e-03	4.315355e-02	1.133544e-01	4.718121e-02	6.617317e-02
220          	-9.484957e-03	4.307589e-02	1.133372e-01	4.718366e-02	6.615357e-02
221          	-9.473949e-03	4.299873e-02	1.133210e-01	4.718654e-02	6.613444e-02
222          	-9.462892e-03	4.292200e-02	1.133041e-01	4.718918e-02	6.611496e-02
223          	-9.451788e-03	4.284578e-02	1.132865e-01	4.719146e-02	6.609503e-02
224          	-9.440540e-03	4.277008e-02	1.132666e-01	4.719277e-02	6.607385e-02
225          	-9.429520e-03	4.269527e-02	1.132515e-01	4.719624e-02	6.605528e-02
226          	-9.418850e-03	4.262112e-02	1.132441e-01	4.720322e-02	6.604092e-02
227          	-9.407874e-03	4.254690e-02	1.132336e-01	4.720895e-02	6.602469e-02
228          	-9.397524e-03	4.247335e-02	1.132282e-01	4.721657e-02	6.601162e-02
229          	-9.387128e-03	4.240054e-02	1.132255e-01	4.722563e-02	6.599989e-02
230          	-9.376306e-03	4.232763e-02	1.132160e-01	4.723167e-02	6.598428e-02
231          	-9.365551e-03	4.225532e-02	1.132053e-01	4.723708e-02	6.596818e-02
232          	-9.354864e-03	4.218399e-02	1.131976e-01	4.724395e-02	6.595368e-02
233          	-9.344739e-03	4.211343e-02	1.131977e-01	4.725411e-02	6.594359e-02
234          	-9.334226e-03	4.204254e-02	1.131917e-01	4.726163e-02	6.593008e-02
235          	-9.323341e-03	4.197281e-02	1.131876e-01	4.727045e-02	6.591714e-02
236          	-9.312822e-03	4.190392e-02	1.131910e-01	4.728266e-02	6.590830e-02
237          	-9.302161e-03	4.183463e-02	1.131940e-01	4.729483e-02	6.589916e-02
238          	-9.291129e-03	4.176555e-02	1.131930e-01	4.730535e-02	6.588761e-02
239          	-9.279755e-03	4.169729e-02	1.131882e-01	4.731435e-02	6.587386e-02
240          	-9.268413e-03	4.163012e-02	1.131857e-01	4.732444e-02	6.586126e-02
241          	-9.257118e-03	4.156343e-02	1.131860e-01	4.733587e-02	6.585010e-02
242          	-9.245861e-03	4.149716e-02	1.131889e-01	4.734859e-02	6.584032e-02
243          	-9.234644e-03	4.143142e-02	1.131947e-01	4.736273e-02	6.583201e-02
244          	-9.223389e-03	4.136605e-02	1.132025e-01	4.737788e-02	6.582466e-02
245          	-9.211992e-03	4.130092e-02	1.132107e-01	4.739334e-02	6.581732e-02
246          	-9.200441e-03	4.123624e-02	1.132185e-01	4.740880e-02	6.580969e-02
247          	-9.188819e-03	4.117223e-02	1.132268e-01	4.742458e-02	6.580222e-02
248          	-9.177209e-03	4.110890e-02	1.132367e-01	4.744112e-02	6.579554e-02
249          	-9.165642e-03	4.104616e-02	1.132487e-01	4.745871e-02	6.578999e-02
250          	-9.154086e-03	4.098393e-02	1.132628e-01	4.747732e-02	6.578550e-02
251          	-9.142477e-03	4.092215e-02	1.132786e-01	4.749681e-02	6.578176e-02
252          	-9.130751e-03	4.086079e-02	1.132956e-01	4.751704e-02	6.577854e-02
253          	-9.118874e-03	4.079989e-02	1.133137e-01	4.753800e-02	6.577574e-02
254          	-9.106842e-03	4.073946e-02	1.133330e-01	4.755968e-02	6.577336e-02
255          	-9.094678e-03	4.067955e-02	1.133535e-01	4.758206e-02	6.577142e-02
256          	-9.082397e-03	4.062010e-02	1.133749e-01	4.760505e-02	6.576984e-02
257          	-9.069966e-03	4.056097e-02	1.133966e-01	4.762832e-02	6.576825e-02
258          	-9.057417e-03	4.050230e-02	1.134185e-01	4.765185e-02	6.576669e-02
259          	-9.044811e-03	4.044430e-02	1.134415e-01	4.767593e-02	6.576555e-02
260          	-9.032304e-03	4.038726e-02	1.134681e-01	4.770175e-02	6.576636e-02
261          	-9.019754e-03	4.033098e-02	1.134987e-01	4.772961e-02	6.576911e-02
262          	-9.006745e-03	4.027400e-02	1.135267e-01	4.775663e-02	6.577012e-02
263          	-8.993804e-03	4.021765e-02	1.135587e-01	4.778556e-02	6.577316e-02
264          	-8.980667e-03	4.016198e-02	1.135902e-01	4.781444e-02	6.577577e-02
265          	-8.967043e-03	4.010605e-02	1.136177e-01	4.784181e-02	6.577590e-02
266          	-8.953592e-03	4.005147e-02	1.136480e-01	4.787043e-02	6.577761e-02
267          	-8.940207e-03	3.999731e-02	1.136825e-01	4.790105e-02	6.578146e-02
268          	-8.927005e-03	3.994394e-02	1.137226e-01	4.793431e-02	6.578831e-02
269          	-8.913427e-03	3.989024e-02	1.137625e-01	4.796784e-02	6.579470e-02
270          	-8.899448e-03	3.983663e-02	1.137995e-01	4.800033e-02	6.579922e-02
271          	-8.885643e-03	3.978423e-02	1.138406e-01	4.803465e-02	6.580593e-02
272          	-8.871908e-03	3.973264e-02	1.138848e-01	4.807050e-02	6.581431e-02
273          	-8.857911e-03	3.968061e-02	1.139297e-01	4.810692e-02	6.582274e-02
274          	-8.843739e-03	3.962894e-02	1.139746e-01	4.814356e-02	6.583103e-02
275          	-8.829402e-03	3.957778e-02	1.140194e-01	4.818030e-02	6.583910e-02
276          	-8.815121e-03	3.952759e-02	1.140661e-01	4.821792e-02	6.584817e-02
277          	-8.800806e-03	3.947775e-02	1.141151e-01	4.825674e-02	6.585835e-02
278          	-8.786425e-03	3.942818e-02	1.141668e-01	4.829697e-02	6.586982e-02
279          	-8.771978e-03	3.937912e-02	1.142211e-01	4.833856e-02	6.588251e-02
280          	-8.757413e-03	3.933050e-02	1.142773e-01	4.838122e-02	6.589605e-02
281          	-8.742686e-03	3.928222e-02	1.143346e-01	4.842462e-02	6.590999e-02
282          	-8.727797e-03	3.923429e-02	1.143925e-01	4.846846e-02	6.592406e-02
283          	-8.712778e-03	3.918675e-02	1.144509e-01	4.851265e-02	6.593820e-02
284          	-8.697671e-03	3.913960e-02	1.145099e-01	4.855730e-02	6.595264e-02
285          	-8.682510e-03	3.909288e-02	1.145703e-01	4.860266e-02	6.596768e-02
286          	-8.667311e-03	3.904661e-02	1.146326e-01	4.864897e-02	6.598359e-02
287          	-8.652060e-03	3.900079e-02	1.146969e-01	4.869640e-02	6.600052e-02
288          	-8.636722e-03	3.895536e-02	1.147635e-01	4.874501e-02	6.601845e-02
289          	-8.621257e-03	3.891029e-02	1.148319e-01	4.879472e-02	6.603723e-02
290          	-8.608683e-03	3.887995e-02	1.148870e-01	4.883483e-02	6.605219e-02
291          	-8.593683e-03	3.883512e-02	1.149569e-01	4.888478e-02	6.607214e-02
292          	-8.577252e-03	3.878438e-02	1.150349e-01	4.894019e-02	6.609469e-02
293          	-8.560221e-03	3.873560e-02	1.151139e-01	4.899671e-02	6.611715e-02
294          	-8.543133e-03	3.868932e-02	1.151905e-01	4.905210e-02	6.613837e-02
295          	-8.526353e-03	3.864401e-02	1.152646e-01	4.910595e-02	6.615866e-02
296          	-8.509944e-03	3.860022e-02	1.153386e-01	4.915935e-02	6.617924e-02
297          	-8.493830e-03	3.855872e-02	1.154145e-01	4.921342e-02	6.620108e-02
298          	-8.477544e-03	3.851926e-02	1.154950e-01	4.926996e-02	6.622505e-02
299          	-8.459995e-03	3.847593e-02	1.155855e-01	4.933275e-02	6.625274e-02
300          	-8.442803e-03	3.843589e-02	1.156740e-01	4.939418e-02	6.627979e-02
301          	-8.425977e-03	3.839654e-02	1.157619e-01	4.945499e-02	6.630694e-02
302          	-8.409333e-03	3.835624e-02	1.158470e-01	4.951419e-02	6.633286e-02
303          	-8.392832e-03	3.831566e-02	1.159291e-01	4.957173e-02	6.635739e-02
304          	-8.376468e-03	3.827601e-02	1.160116e-01	4.962934e-02	6.638227e-02
305          	-8.359971e-03	3.823705e-02	1.160950e-01	4.968755e-02	6.640749e-02
306          	-8.343111e-03	3.819793e-02	1.161808e-01	4.974727e-02	6.643350e-02
307          	-8.325958e-03	3.815898e-02	1.162716e-01	4.980982e-02	6.646173e-02
308          	-8.308479e-03	3.812026e-02	1.163652e-01	4.987413e-02	6.649109e-02
309          	-8.290728e-03	3.808165e-02	1.164613e-01	4.993992e-02	6.652137e-02
310          	-8.272849e-03	3.804334e-02	1.165588e-01	5.000656e-02	6.655225e-02
311          	-8.254882e-03	3.800506e-02	1.166570e-01	5.007364e-02	6.658340e-02
312          	-8.237039e-03	3.796778e-02	1.167557e-01	5.014080e-02	6.661488e-02
313          	-8.219239e-03	3.793111e-02	1.168533e-01	5.020743e-02	6.664591e-02
314          	-8.201286e-03	3.789434e-02	1.169509e-01	5.027415e-02	6.667672e-02
315          	-8.183114e-03	3.785752e-02	1.170494e-01	5.034156e-02	6.670779e-02
316          	-8.164782e-03	3.782099e-02	1.171491e-01	5.040975e-02	6.673931e-02
317          	-8.146384e-03	3.778496e-02	1.172500e-01	5.047859e-02	6.677136e-02
318          	-8.127967e-03	3.774944e-02	1.173522e-01	5.054813e-02	6.680406e-02
319          	-8.109503e-03	3.771428e-02	1.174560e-01	5.061849e-02	6.683750e-02
320          	-8.090933e-03	3.767937e-02	1.175615e-01	5.068981e-02	6.687168e-02
321          	-8.072203e-03	3.764463e-02	1.176685e-01	5.076205e-02	6.690645e-02
322          	-8.053293e-03	3.761004e-02	1.177764e-01	5.083492e-02	6.694150e-02
323          	-8.034222e-03	3.757566e-02	1.178845e-01	5.090804e-02	6.697648e-02
324          	-8.015036e-03	3.754153e-02	1.179924e-01	5.098114e-02	6.701121e-02
325          	-7.995780e-03	3.750773e-02	1.181000e-01	5.105420e-02	6.704576e-02
326          	-7.976481e-03	3.747426e-02	1.182079e-01	5.112745e-02	6.708041e-02
327          	-7.957144e-03	3.744114e-02	1.183166e-01	5.120117e-02	6.711545e-02
328          	-7.937753e-03	3.740833e-02	1.184266e-01	5.127555e-02	6.715106e-02
329          	-7.918279e-03	3.737578e-02	1.185378e-01	5.135064e-02	6.718720e-02
330          	-7.898691e-03	3.734346e-02	1.186500e-01	5.142631e-02	6.722369e-02
331          	-7.878963e-03	3.731135e-02	1.187627e-01	5.150237e-02	6.726029e-02
332          	-7.859089e-03	3.727947e-02	1.188755e-01	5.157866e-02	6.729684e-02
333          	-7.839080e-03	3.724780e-02	1.189885e-01	5.165515e-02	6.733331e-02
334          	-7.818940e-03	3.721630e-02	1.191019e-01	5.173202e-02	6.736990e-02
335          	-7.798633e-03	3.718477e-02	1.192167e-01	5.180970e-02	6.740697e-02
336          	-7.778224e-03	3.715344e-02	1.193325e-01	5.188801e-02	6.744446e-02
337          	-7.758693e-03	3.712540e-02	1.194425e-01	5.196257e-02	6.747995e-02
338          	-7.738558e-03	3.709537e-02	1.195566e-01	5.203972e-02	6.751684e-02
339          	-7.714104e-03	3.705124e-02	1.197104e-01	5.214110e-02	6.756930e-02
340          	-7.695861e-03	3.703301e-02	1.198086e-01	5.220842e-02	6.760014e-02
341          	-7.676425e-03	3.700788e-02	1.199093e-01	5.227820e-02	6.763105e-02
342          	-7.652046e-03	3.696386e-02	1.200533e-01	5.237463e-02	6.767872e-02
343          	-7.630226e-03	3.693565e-02	1.201822e-01	5.246086e-02	6.772131e-02
344          	-7.613500e-03	3.692207e-02	1.202630e-01	5.251798e-02	6.774498e-02
345          	-7.590454e-03	3.688330e-02	1.203962e-01	5.260763e-02	6.778854e-02
346          	-7.568533e-03	3.685127e-02	1.205269e-01	5.269491e-02	6.783197e-02
347          	-7.551103e-03	3.683601e-02	1.206140e-01	5.275591e-02	6.785811e-02
348          	-7.527212e-03	3.679715e-02	1.207578e-01	5.285167e-02	6.790610e-02
349          	-7.507982e-03	3.677659e-02	1.208579e-01	5.292098e-02	6.793694e-02
350          	-7.483387e-03	3.673790e-02	1.210096e-01	5.302142e-02	6.798820e-02
351          	-7.464213e-03	3.671994e-02	1.211089e-01	5.309026e-02	6.801869e-02
352          	-7.443196e-03	3.669403e-02	1.212193e-01	5.316646e-02	6.805285e-02
353          	-7.420879e-03	3.666276e-02	1.213421e-01	5.325019e-02	6.809194e-02
354          	-7.398197e-03	3.663274e-02	1.214743e-01	5.333893e-02	6.813533e-02
355          	-7.372272e-03	3.659320e-02	1.216510e-01	5.345321e-02	6.819776e-02
356          	-7.352824e-03	3.657902e-02	1.217542e-01	5.352428e-02	6.822993e-02
357          	-7.332036e-03	3.655676e-02	1.218557e-01	5.359580e-02	6.825987e-02
358          	-7.309793e-03	3.652801e-02	1.219647e-01	5.367256e-02	6.829215e-02
359          	-7.283462e-03	3.648904e-02	1.221238e-01	5.377845e-02	6.834537e-02
360          	-7.263504e-03	3.647559e-02	1.222278e-01	5.385042e-02	6.837742e-02
361          	-7.242515e-03	3.645455e-02	1.223404e-01	5.392767e-02	6.841270e-02
362          	-7.220558e-03	3.642563e-02	1.224621e-01	5.401050e-02	6.845161e-02
363          	-7.194924e-03	3.638638e-02	1.226295e-01	5.411982e-02	6.850967e-02
364          	-7.174756e-03	3.637226e-02	1.227360e-01	5.419324e-02	6.854275e-02
365          	-7.153263e-03	3.635195e-02	1.228440e-01	5.426874e-02	6.857526e-02
366          	-7.130457e-03	3.632474e-02	1.229597e-01	5.434941e-02	6.861032e-02
367          	-7.103729e-03	3.628794e-02	1.231211e-01	5.445683e-02	6.866429e-02
368          	-7.079914e-03	3.626630e-02	1.232640e-01	5.455206e-02	6.871189e-02
369          	-7.061309e-03	3.625419e-02	1.233512e-01	5.461431e-02	6.873693e-02