/*--------------------------------*- C++ -*----------------------------------*\
| =========                 |                                                 |
| \\      /  F ield         | OpenFOAM: The Open Source CFD Toolbox           |
|  \\    /   O peration     | Version:  5.x                                   |
|   \\  /    A nd           | Web:      www.OpenFOAM.org                      |
|    \\/     M anipulation  |                                                 |
\*---------------------------------------------------------------------------*/
FoamFile
{
    version     2.0;
    format      ascii;
    class       volScalarField;
    location    "500";
    object      nut;
}
// * * * * * * * * * * * * * * * * * * * * * * * * * * * * * * * * * * * * * //

dimensions      [0 2 -1 0 0 0 0];

internalField   nonuniform List<scalar> 
26000
(
0.000412425
0.000250281
0.000122579
3.18238e-05
2.51908e-05
3.01263e-05
3.28721e-05
2.97077e-05
2.26602e-05
1.55604e-05
1.06028e-05
8.09605e-06
6.31101e-06
5.80215e-06
6.37283e-06
6.2624e-06
6.44073e-06
7.19494e-06
7.50232e-06
8.03139e-06
8.97913e-06
1.07181e-05
1.35688e-05
1.65747e-05
2.09323e-05
2.46677e-05
2.83818e-05
3.28735e-05
3.69428e-05
3.85453e-05
3.86819e-05
3.89414e-05
3.92864e-05
3.97806e-05
4.05945e-05
4.05659e-05
3.88925e-05
3.70651e-05
3.48265e-05
3.30127e-05
0.00130081
0.00093945
0.000681599
0.000502872
0.000402944
0.000367763
0.000362893
0.000351139
0.000318929
0.000280651
0.000245222
0.000222417
0.000204737
0.000192255
0.00019743
0.000197613
0.000197708
0.000204601
0.000207573
0.000211068
0.000216982
0.000227736
0.000245319
0.000261939
0.000284534
0.000302829
0.000319379
0.000338534
0.000356954
0.000365282
0.000366505
0.000367498
0.000368484
0.000370127
0.000373186
0.000373564
0.000367218
0.000359727
0.000351706
0.000341644
0.00241632
0.00192839
0.00143838
0.00104617
0.000811273
0.000671936
0.000599823
0.00056908
0.000552686
0.000535232
0.000511317
0.000484378
0.000462653
0.000446286
0.000454349
0.000455489
0.000451802
0.000456696
0.000456613
0.000445869
0.000441236
0.000440369
0.00044207
0.000452508
0.000468524
0.000486848
0.000497349
0.000509809
0.000527677
0.000550125
0.000574318
0.000602626
0.000633796
0.000668128
0.000704095
0.000727821
0.00073097
0.000730045
0.000726838
0.000713218
0.00360761
0.00308766
0.00247285
0.0018959
0.00143215
0.0011189
0.000928629
0.000823494
0.0007745
0.000759326
0.00075766
0.000756874
0.000750219
0.000738048
0.000726621
0.000703928
0.000685776
0.000671482
0.000667637
0.000672613
0.00068466
0.000702455
0.000724219
0.000752822
0.000788216
0.000825387
0.000840664
0.00085316
0.000870818
0.000891438
0.000912232
0.000934122
0.00096047
0.000990397
0.00102458
0.00106078
0.00109734
0.00113236
0.00115184
0.00114789
0.00482348
0.00430462
0.0036542
0.00297708
0.00235285
0.00183332
0.00144269
0.00120201
0.00106031
0.000991936
0.000969993
0.000973142
0.000981401
0.000984819
0.000978819
0.000968949
0.000962341
0.000959607
0.000964005
0.000976668
0.000995558
0.00101417
0.00102813
0.00104704
0.00107464
0.00111015
0.00114516
0.00118133
0.00122197
0.00126566
0.00130144
0.00133001
0.00136005
0.00138939
0.0014207
0.00145366
0.00148903
0.0015252
0.00156711
0.00159211
0.00606223
0.00555027
0.00489941
0.00418789
0.00347874
0.00282237
0.00225348
0.00180873
0.00149826
0.00132161
0.00122996
0.00119591
0.00119145
0.00119722
0.00120561
0.00121396
0.00122366
0.00123526
0.00124831
0.00126009
0.0012764
0.00129918
0.00132617
0.00135737
0.00139497
0.00143878
0.00147765
0.00151713
0.00156042
0.00160675
0.00165468
0.00170259
0.00175183
0.00179342
0.0018321
0.00186827
0.00190446
0.00193974
0.00197843
0.00201516
0.00732368
0.00682175
0.0061808
0.00546585
0.00472319
0.00399427
0.00330705
0.00270316
0.00220824
0.00184507
0.00162028
0.00150052
0.00144216
0.00141961
0.00142069
0.00143549
0.00145614
0.00147869
0.00150092
0.00152344
0.00154978
0.0015812
0.00161743
0.00165527
0.00169552
0.0017424
0.0017922
0.00184424
0.00189915
0.00195207
0.00200551
0.00205961
0.00211555
0.00217038
0.00222473
0.00227199
0.00231536
0.00235455
0.00239143
0.00243334
0.00860692
0.00811708
0.00748946
0.00678357
0.00603528
0.00527486
0.00452344
0.00381442
0.00318002
0.00265138
0.00224598
0.00196998
0.00180523
0.00171152
0.00167053
0.00166663
0.00168282
0.00170743
0.00173728
0.00177036
0.00180724
0.00184705
0.00188913
0.00193514
0.00198479
0.00203962
0.00209676
0.00215567
0.00221745
0.00228043
0.00234495
0.00240845
0.00247144
0.00253322
0.0025953
0.00265451
0.00270986
0.00275759
0.00279761
0.00284435
0.0099113
0.00943477
0.00882215
0.00813026
0.00738932
0.00662183
0.00584061
0.00507346
0.00434488
0.00369312
0.00314192
0.00271407
0.00238862
0.00215198
0.00201756
0.00195837
0.00194405
0.00195321
0.00197831
0.00201405
0.00205628
0.00210183
0.00215176
0.00220616
0.00226405
0.00232522
0.00238957
0.00245747
0.00252821
0.00259879
0.00267099
0.00274342
0.00281669
0.00288719
0.00295652
0.00302312
0.00308756
0.00314613
0.00319328
0.00324614
0.0112363
0.0107739
0.0101768
0.00950162
0.00877406
0.0080123
0.00722278
0.00642691
0.00564438
0.0049083
0.00424759
0.00369719
0.00323636
0.00285606
0.00256934
0.00238666
0.00229667
0.00226053
0.00225888
0.00228209
0.0023185
0.0023644
0.00241818
0.00247743
0.00254059
0.00260894
0.00268062
0.00275536
0.00283278
0.00291193
0.00299297
0.00307304
0.00315385
0.00323323
0.00331145
0.00338543
0.00345667
0.00352323
0.00357927
0.00363939
0.0125813
0.0121337
0.0115537
0.0108961
0.0101848
0.00943517
0.00864974
0.00784455
0.00703447
0.00624741
0.00551021
0.00486482
0.00429401
0.00379116
0.00337351
0.00306691
0.00285148
0.00270781
0.0026334
0.00261615
0.00262793
0.00266159
0.00270992
0.00276688
0.00283182
0.00290402
0.00297951
0.00305981
0.00314382
0.00322904
0.00331651
0.00340448
0.00349275
0.00357896
0.00366433
0.00374614
0.00382396
0.00389651
0.0039598
0.00402711
0.0139455
0.0135131
0.012951
0.0123121
0.0116187
0.0108848
0.0101103
0.0093077
0.0084874
0.00767376
0.00688772
0.00617445
0.0055166
0.00491022
0.00437894
0.0039624
0.00363973
0.00339413
0.00322047
0.00310409
0.0030424
0.00303559
0.00305919
0.00310133
0.00315986
0.00322797
0.00330343
0.00338586
0.00347196
0.00356167
0.00365442
0.00374746
0.00384148
0.00393377
0.00402453
0.00411166
0.00419557
0.00427318
0.00434055
0.0044142
0.0153281
0.014911
0.0143672
0.0137477
0.0130735
0.0123576
0.0115982
0.0108054
0.00998605
0.00916088
0.00834845
0.00758905
0.0068684
0.00617891
0.00554957
0.00503315
0.00461184
0.00427262
0.00401266
0.00381259
0.00367302
0.00358353
0.00353403
0.00352633
0.00355683
0.00360817
0.00367467
0.00375121
0.0038352
0.00392495
0.00401877
0.00411475
0.00421166
0.00430695
0.00440157
0.00449182
0.00457904
0.00466044
0.00472993
0.0048071
0.0167286
0.0163266
0.0158011
0.0152013
0.0145473
0.0138507
0.0131092
0.0123307
0.01152
0.0106945
0.00987009
0.00908429
0.00831982
0.00756803
0.00685862
0.00625323
0.00574066
0.00531145
0.00496776
0.00468903
0.00447987
0.0043245
0.00421253
0.00414177
0.00410221
0.00409765
0.00412774
0.00418408
0.004255
0.00433669
0.00442632
0.004519
0.00461569
0.00471063
0.00480525
0.00489627
0.00498394
0.00506633
0.00513557
0.00521356
0.0181463
0.0177591
0.0172518
0.0166719
0.0160383
0.015362
0.0146399
0.0138789
0.0130818
0.0122635
0.0114377
0.0106397
0.00984895
0.00905326
0.00828186
0.00760233
0.00700834
0.00649424
0.0060687
0.00571034
0.00543035
0.00521136
0.00504221
0.00491971
0.0048291
0.00477438
0.00474559
0.00474465
0.00477002
0.00482588
0.00489706
0.00497862
0.00506676
0.00515695
0.00524734
0.00533471
0.00541979
0.00549907
0.00556528
0.00564138
0.0195809
0.0192081
0.0187186
0.0181582
0.0175452
0.0168896
0.0161881
0.0154463
0.0146661
0.0138603
0.0130403
0.0122393
0.0114364
0.0106134
0.00979857
0.0090606
0.00839756
0.00780662
0.00730212
0.00686553
0.00651315
0.00622812
0.0059996
0.00582505
0.00568759
0.0055906
0.00552036
0.00547572
0.00545249
0.00545049
0.00547325
0.00551938
0.00558644
0.00566009
0.00573998
0.00581816
0.00589606
0.00596835
0.00602712
0.0060981
0.0210319
0.020673
0.0202009
0.0196597
0.0190669
0.0184322
0.0177516
0.0170303
0.0162691
0.0154792
0.0146706
0.0138738
0.013068
0.012231
0.0113873
0.0106074
0.00988982
0.00923336
0.00865647
0.00814532
0.00772106
0.00736805
0.00707721
0.00684715
0.00666055
0.00652035
0.00641193
0.0063306
0.00627185
0.00623026
0.00620713
0.00619929
0.00621144
0.00624735
0.0062998
0.00635958
0.00642234
0.00648286
0.0065286
0.00659098
0.0224988
0.0221534
0.0216986
0.0211758
0.0206027
0.0199886
0.0193291
0.0186289
0.017888
0.0171164
0.0163226
0.0155351
0.0147327
0.0138922
0.0130328
0.0122245
0.0114651
0.0107555
0.0101169
0.00953827
0.00904602
0.00862504
0.00827023
0.00798162
0.00774273
0.00755568
0.00740576
0.00728799
0.00719556
0.00712204
0.0070653
0.00701921
0.00698719
0.00696486
0.0069619
0.00697973
0.00701409
0.00705305
0.00707869
0.00712735
0.0239812
0.0236485
0.02321
0.0227053
0.0221517
0.0215579
0.0209194
0.0202404
0.0195206
0.0187688
0.0179925
0.0172181
0.0164243
0.0155872
0.0147221
0.0138958
0.0131087
0.0123589
0.011669
0.0110319
0.0104756
0.00999029
0.00957308
0.00922413
0.00892939
0.00869302
0.0084983
0.0083416
0.00821349
0.00810712
0.00802047
0.00794299
0.00787773
0.00781626
0.00776328
0.00771922
0.00769704
0.00769337
0.00768756
0.00771484
0.0254792
0.0251585
0.0247353
0.0242482
0.0237135
0.0231394
0.0225216
0.0218638
0.0211653
0.0204343
0.0196769
0.0189183
0.0181369
0.0173084
0.0164454
0.0156111
0.0148061
0.0140264
0.0132977
0.0126105
0.0119986
0.0114543
0.0109764
0.0105685
0.0102172
0.00992996
0.00968718
0.00948737
0.00932182
0.00918026
0.00906171
0.00895438
0.00885961
0.00876577
0.00867718
0.00858803
0.00850489
0.00843436
0.0083725
0.00836293
0.0269927
0.0266838
0.026275
0.0258044
0.0252878
0.0247328
0.0241353
0.0234984
0.0228212
0.0221112
0.0213739
0.0206326
0.0198661
0.0190492
0.0181948
0.0173601
0.016545
0.0157471
0.0149899
0.0142629
0.0136038
0.0130078
0.012473
0.0120086
0.0116011
0.0112609
0.0109693
0.0107238
0.010517
0.0103387
0.0101864
0.0100464
0.00992111
0.00979764
0.00967817
0.00955329
0.00942716
0.00929997
0.00916055
0.00908984
0.0285211
0.0282229
0.0278282
0.0273737
0.0268745
0.0263381
0.0257602
0.0251437
0.0244876
0.0237987
0.023082
0.0223594
0.0216098
0.0208079
0.0199654
0.0191361
0.0183187
0.0175102
0.0167323
0.0159772
0.01528
0.0146381
0.0140534
0.0135374
0.0130755
0.0126824
0.0123418
0.012049
0.011798
0.0115793
0.0113902
0.011217
0.0110597
0.0109044
0.0107541
0.010598
0.0104365
0.0102664
0.0100647
0.00991926
0.0300652
0.0297767
0.0293952
0.028956
0.0284737
0.0279552
0.0273962
0.0267997
0.0261643
0.0254964
0.0248004
0.0240969
0.0233656
0.0225808
0.0217534
0.0209337
0.0201196
0.0193064
0.0185174
0.0177422
0.017015
0.016336
0.0157086
0.0151443
0.0146334
0.0141888
0.0137985
0.0134593
0.0131628
0.0129016
0.012673
0.012463
0.0122711
0.0120838
0.0119017
0.011714
0.0115186
0.0113113
0.0110629
0.0108588
0.0316235
0.0313446
0.0309759
0.0305516
0.0300854
0.0295841
0.0290436
0.0284665
0.0278513
0.027204
0.0265287
0.0258447
0.0251322
0.024366
0.0235556
0.0227489
0.0219428
0.0211314
0.0203371
0.019548
0.0188006
0.0180926
0.0174279
0.0168215
0.0162649
0.0157733
0.0153351
0.0149486
0.0146077
0.0143033
0.0140337
0.0137849
0.0135553
0.0133329
0.0131172
0.0128963
0.0126683
0.0124261
0.0121368
0.0118861
0.033197
0.0329271
0.0325707
0.0321606
0.03171
0.0312254
0.0307027
0.0301443
0.0295489
0.0289219
0.028267
0.0276026
0.0269092
0.0261621
0.0253702
0.0245788
0.0237841
0.0229791
0.0221853
0.0213897
0.0206281
0.0198985
0.0192046
0.0185626
0.0179646
0.0174305
0.0169475
0.0165139
0.0161272
0.0157786
0.0154666
0.0151774
0.0149106
0.0146516
0.0144005
0.0141448
0.0138824
0.0136049
0.0132764
0.0129841
0.0347862
0.0345248
0.0341801
0.0337835
0.0333479
0.0328793
0.0323738
0.0318337
0.0312575
0.0306504
0.0300157
0.0293708
0.0286968
0.0279692
0.0271957
0.0264218
0.0256409
0.0248456
0.0240564
0.0232599
0.02249
0.0217441
0.0210275
0.0203569
0.0197254
0.0191514
0.0186264
0.0181504
0.0177186
0.0173256
0.0169707
0.01664
0.0163337
0.0160365
0.0157482
0.0154562
0.0151579
0.014844
0.0144764
0.0141438
0.0363912
0.036138
0.0358045
0.0354209
0.0349996
0.0345465
0.0340577
0.0335352
0.0329777
0.03239
0.0317751
0.0311497
0.0304954
0.0297881
0.0290345
0.0282781
0.0275125
0.0267291
0.0259465
0.0251542
0.0243805
0.0236263
0.022894
0.0222004
0.0215389
0.0209317
0.0203676
0.0198507
0.0193773
0.0189414
0.0185437
0.0181709
0.017824
0.0174871
0.0171602
0.0168308
0.016495
0.0161435
0.0157361
0.0153631
0.0380126
0.0377672
0.0374444
0.0370734
0.0366659
0.0362276
0.0357548
0.0352495
0.0347102
0.0341414
0.033546
0.0329398
0.0323051
0.0316185
0.0308864
0.0301478
0.0293983
0.0286289
0.0278567
0.0270712
0.0262985
0.02554
0.024797
0.024086
0.0234011
0.0227635
0.0221666
0.0216121
0.0210964
0.0206183
0.0201785
0.0197639
0.0193765
0.0189992
0.0186327
0.0182655
0.0178911
0.0175011
0.0170531
0.0166388
0.039651
0.039413
0.0391004
0.0387414
0.0383472
0.0379233
0.0374661
0.0369774
0.0364557
0.0359054
0.0353291
0.0347417
0.0341263
0.03346
0.0327489
0.0320295
0.0312976
0.0305437
0.0297841
0.0290081
0.0282401
0.0274809
0.0267312
0.0260065
0.0253046
0.0246433
0.0240158
0.0234271
0.0228722
0.0223541
0.0218733
0.0214173
0.0209906
0.0205716
0.0201662
0.0197578
0.0193431
0.0189144
0.0184249
0.0179685
0.0413067
0.0410757
0.040773
0.0404255
0.0400441
0.0396342
0.039192
0.0387194
0.038215
0.0376827
0.0371251
0.0365563
0.0359599
0.0353138
0.0346233
0.0339236
0.0332098
0.0324728
0.0317274
0.0309632
0.0302027
0.0294462
0.0286925
0.0279604
0.0272437
0.0265643
0.0259127
0.0252942
0.0247039
0.0241469
0.0236285
0.0231304
0.0226622
0.0222032
0.0217567
0.021307
0.0208527
0.0203819
0.0198494
0.0193505
0.04298
0.0427558
0.0424625
0.0421262
0.0417572
0.0413608
0.0409332
0.0404764
0.0399887
0.0394741
0.0389348
0.0383844
0.037807
0.0371809
0.0365108
0.0358306
0.0351355
0.034416
0.0336862
0.0329353
0.0321846
0.031434
0.0306812
0.029945
0.0292182
0.0285218
0.0278507
0.0272057
0.0265859
0.025993
0.0254358
0.0248993
0.0243892
0.0238909
0.0234045
0.0229127
0.0224157
0.0219035
0.0213277
0.0207834
0.0446711
0.0444534
0.0441693
0.0438438
0.0434869
0.0431036
0.0426903
0.0422488
0.0417775
0.0412802
0.0407589
0.0402266
0.0396681
0.0390625
0.0384122
0.0377513
0.0370749
0.0363736
0.0356601
0.0349239
0.0341846
0.0334422
0.0326935
0.0319565
0.0312239
0.0305153
0.0298258
0.0291603
0.0285144
0.0278885
0.0272942
0.026721
0.0261715
0.025633
0.0251042
0.024572
0.0240328
0.0234765
0.0228584
0.0222681
0.0463801
0.0461687
0.0458935
0.0455785
0.0452335
0.0448629
0.0444636
0.044037
0.0435818
0.0431014
0.0425978
0.0420834
0.0415432
0.0409571
0.0403269
0.0396856
0.0390283
0.0383456
0.0376495
0.0369285
0.036202
0.0354693
0.034727
0.0339921
0.033257
0.0325403
0.0318369
0.0311529
0.0304855
0.0298292
0.0292
0.0285916
0.0280041
0.0274258
0.0268558
0.026283
0.0257015
0.0251013
0.0244385
0.0238027
0.0481069
0.0479017
0.0476352
0.0473305
0.046997
0.046639
0.0462533
0.0458415
0.045402
0.0449383
0.0444521
0.0439553
0.0434339
0.0428661
0.0422557
0.0416337
0.0409957
0.0403321
0.0396548
0.0389491
0.038236
0.0375144
0.0367802
0.0360495
0.0353145
0.0345928
0.033879
0.0331779
0.0324919
0.0318098
0.0311488
0.0305064
0.029882
0.0292639
0.0286559
0.0280425
0.0274189
0.0267752
0.0260649
0.0253836
0.0498513
0.0496522
0.0493942
0.0490997
0.0487774
0.0484318
0.0480596
0.0476623
0.0472384
0.046791
0.0463219
0.0458422
0.0453383
0.0447892
0.0441985
0.0435959
0.0429769
0.0423322
0.041673
0.0409842
0.0402859
0.0395766
0.038852
0.0381271
0.0373943
0.03667
0.0359489
0.0352349
0.0345317
0.0338264
0.0331365
0.0324604
0.0318005
0.0311461
0.0304986
0.0298465
0.0291816
0.0284943
0.0277377
0.0270096
0.0516127
0.0514196
0.0511701
0.0508856
0.0505746
0.0502412
0.0498824
0.0494995
0.0490909
0.0486598
0.0482077
0.0477453
0.0472578
0.0467268
0.0461555
0.0455722
0.0449724
0.0443467
0.0437052
0.0430338
0.0423512
0.0416552
0.0409416
0.0402237
0.0394944
0.0387695
0.0380435
0.0373196
0.0366014
0.0358754
0.0351593
0.0344535
0.0337595
0.0330697
0.0323835
0.031692
0.0309864
0.0302549
0.0294543
0.0286785
0.0533905
0.0532035
0.0529624
0.0526879
0.0523881
0.0520669
0.0517214
0.0513527
0.0509595
0.0505444
0.0501091
0.0496625
0.0491916
0.0486787
0.0481266
0.0475625
0.0469819
0.0463761
0.0457516
0.0450976
0.0444322
0.0437493
0.0430486
0.0423379
0.0416132
0.0408891
0.04016
0.0394285
0.0386975
0.0379532
0.0372132
0.0364774
0.0357538
0.0350308
0.0343077
0.0335746
0.0328299
0.0320564
0.0312126
0.0303871
0.0551837
0.0550028
0.0547703
0.0545058
0.0542172
0.0539081
0.0535759
0.0532216
0.0528441
0.0524445
0.0520244
0.0515935
0.0511391
0.0506442
0.0501114
0.0495663
0.0490046
0.0484173
0.0478105
0.0471738
0.0465246
0.0458562
0.0451682
0.0444674
0.0437488
0.0430268
0.0422963
0.0415593
0.0408168
0.0400562
0.0392948
0.0385326
0.0377801
0.0370253
0.0362668
0.0354951
0.0347094
0.033896
0.0330105
0.0321364
0.0569913
0.0568168
0.0565929
0.0563386
0.0560612
0.0557643
0.0554451
0.055105
0.0547415
0.0543569
0.0539525
0.0535375
0.0530998
0.0526229
0.0521093
0.0515835
0.0510412
0.0504713
0.049882
0.0492627
0.0486293
0.0479755
0.0473004
0.0466118
0.0458997
0.0451807
0.0444498
0.0437099
0.0429562
0.0421809
0.0414003
0.0406144
0.0398346
0.039049
0.0382565
0.0374498
0.0366248
0.0357717
0.034844
0.0339233
0.0588122
0.0586444
0.0584295
0.0581853
0.0579192
0.0576348
0.0573283
0.057001
0.0566513
0.0562817
0.0558929
0.0554939
0.0550729
0.054614
0.0541196
0.0536133
0.0530884
0.0525365
0.0519652
0.0513642
0.0507457
0.0501074
0.0494439
0.0487659
0.048064
0.0473486
0.046618
0.0458739
0.045111
0.0443234
0.0435261
0.0427188
0.0419131
0.0410974
0.0402752
0.0394353
0.038573
0.037681
0.0367098
0.035745
0.0606448
0.0604841
0.0602788
0.060045
0.0597898
0.0595164
0.0592222
0.0589081
0.0585727
0.058218
0.057845
0.057462
0.0570578
0.0566168
0.0561416
0.0556526
0.0551455
0.0546119
0.0540589
0.0534741
0.0528711
0.0522471
0.0515965
0.0509289
0.0502361
0.0495281
0.0487994
0.0480502
0.0472776
0.0464805
0.0456689
0.0448423
0.0440115
0.0431706
0.04232
0.0414487
0.0405506
0.0396211
0.038609
0.0375999
0.0624871
0.0623337
0.0621369
0.0619132
0.061669
0.0614075
0.0611261
0.0608255
0.0605045
0.0601649
0.0598078
0.0594411
0.0590541
0.0586304
0.0581722
0.0577006
0.0572113
0.0566962
0.0561595
0.0555915
0.0550052
0.0543948
0.053758
0.0531001
0.0524155
0.051713
0.0509867
0.0502359
0.0494566
0.0486501
0.0478256
0.0469822
0.0461299
0.0452652
0.044388
0.0434867
0.0425547
0.0415891
0.0405388
0.0394855
0.064337
0.0641906
0.064003
0.0637896
0.0635569
0.0633075
0.0630392
0.0627525
0.0624461
0.0621217
0.0617802
0.0614294
0.0610576
0.0606504
0.0602098
0.0597559
0.0592847
0.0587859
0.0582658
0.0577151
0.0571432
0.0565479
0.055923
0.0552774
0.0546018
0.0539036
0.0531797
0.0524291
0.0516434
0.0508286
0.0499929
0.0491348
0.0482638
0.0473776
0.0464755
0.045546
0.0445818
0.0435815
0.0424939
0.0413984
0.0661936
0.0660546
0.0658763
0.0656737
0.0654527
0.0652158
0.0649607
0.064688
0.0643969
0.0640876
0.063761
0.0634243
0.0630676
0.062677
0.0622538
0.0618176
0.0613622
0.06088
0.0603769
0.0598408
0.0592834
0.0587017
0.0580896
0.0574549
0.0567881
0.0560974
0.0553763
0.0546228
0.0538334
0.0530125
0.0521677
0.0512971
0.0504098
0.0495042
0.0485794
0.0476235
0.0466287
0.045595
0.0444709
0.0433355
0.0680555
0.0679243
0.0677559
0.0675643
0.0673552
0.0671315
0.0668895
0.0666302
0.0663523
0.0660572
0.0657456
0.0654239
0.0650827
0.0647092
0.064303
0.0638823
0.0634427
0.0629774
0.062489
0.061968
0.0614259
0.0608566
0.0602578
0.0596336
0.0589736
0.0582884
0.0575697
0.0568137
0.0560233
0.0551986
0.0543467
0.0534658
0.0525645
0.0516419
0.0506963
0.0497156
0.0486922
0.0476264
0.046466
0.0452945
0.069921
0.069798
0.0696402
0.0694598
0.0692622
0.06905
0.0688208
0.068575
0.068311
0.0680304
0.0677337
0.0674275
0.0671012
0.0667425
0.0663524
0.0659484
0.0655244
0.0650737
0.0646011
0.064095
0.0635659
0.0630101
0.062422
0.0618075
0.0611567
0.060477
0.0597606
0.0590032
0.0582117
0.0573845
0.0565274
0.0556382
0.0547252
0.0537877
0.0528233
0.0518192
0.0507691
0.0496723
0.0484801
0.0472726
0.0717875
0.0716724
0.0715245
0.0713553
0.0711696
0.0709698
0.0707538
0.0705222
0.0702725
0.0700062
0.0697238
0.0694309
0.0691186
0.0687757
0.0684011
0.0680114
0.0676021
0.0671669
0.0667079
0.0662162
0.0657017
0.0651575
0.0645816
0.0639762
0.0633313
0.0626555
0.0619404
0.0611863
0.0603958
0.0595677
0.0587071
0.0578118
0.0568892
0.0559389
0.0549577
0.0539305
0.0528567
0.0517332
0.0505108
0.049268
0.0736534
0.0735461
0.0734082
0.0732509
0.0730775
0.0728903
0.0726869
0.0724677
0.0722312
0.0719789
0.0717115
0.0714327
0.0711341
0.0708044
0.0704445
0.0700702
0.0696753
0.0692533
0.0688088
0.0683311
0.0678295
0.0672971
0.0667315
0.0661336
0.065497
0.0648244
0.0641124
0.0633615
0.0625734
0.0617459
0.0608837
0.0599841
0.0590539
0.0580931
0.0570975
0.0560513
0.054955
0.0538063
0.0525554
0.0512783
0.0755167
0.0754166
0.0752879
0.0751415
0.0749803
0.0748064
0.0746163
0.0744103
0.0741871
0.0739478
0.073693
0.073428
0.0731431
0.0728275
0.0724817
0.0721202
0.0717397
0.0713311
0.0708982
0.0704338
0.0699433
0.0694231
0.0688663
0.068278
0.0676484
0.0669801
0.066273
0.0655269
0.0647424
0.0639172
0.0630551
0.062153
0.0612173
0.0602479
0.0592401
0.0581777
0.0570611
0.0558887
0.0546113
0.0533001
0.0773757
0.0772822
0.0771622
0.0770259
0.0768766
0.0767151
0.0765378
0.076345
0.0761351
0.0759089
0.0756666
0.0754131
0.0751407
0.0748396
0.0745082
0.0741597
0.0737909
0.073396
0.0729752
0.0725214
0.0720428
0.0715328
0.0709849
0.0704043
0.0697795
0.0691195
0.0684199
0.0676803
0.0669011
0.0660797
0.0652193
0.0643165
0.0633771
0.0624011
0.0613832
0.0603069
0.0591722
0.0579774
0.0566761
0.0553347
0.0792287
0.0791413
0.079029
0.0789016
0.0787623
0.0786119
0.0784471
0.078268
0.0780715
0.0778584
0.0776289
0.0773875
0.0771268
0.0768374
0.0765201
0.0761846
0.0758277
0.0754446
0.0750353
0.0745924
0.0741237
0.0736211
0.0730815
0.0725081
0.0718933
0.0712429
0.070552
0.0698203
0.0690479
0.0682317
0.0673745
0.0664727
0.0655314
0.0645505
0.0635245
0.0624366
0.0612859
0.0600687
0.0587475
0.0573786
0.0810745
0.0809925
0.0808871
0.0807677
0.0806374
0.0804972
0.0803442
0.0801774
0.0799936
0.0797932
0.0795762
0.0793466
0.0790976
0.07882
0.0785149
0.078191
0.0778451
0.0774719
0.0770738
0.0766416
0.0761825
0.0756881
0.0751581
0.0745943
0.07399
0.0733497
0.0726687
0.0719461
0.0711815
0.0703719
0.0695192
0.0686199
0.0676783
0.0666943
0.065662
0.0645644
0.0634001
0.0621648
0.0608245
0.0594321
0.0829116
0.0828345
0.0827353
0.082623
0.0825006
0.082369
0.0822257
0.0820697
0.0818984
0.0817103
0.0815053
0.0812872
0.0810493
0.0807827
0.0804884
0.0801751
0.0798399
0.0794778
0.0790877
0.0786652
0.0782152
0.0777327
0.0772142
0.0766617
0.0760687
0.0754395
0.0747691
0.0740564
0.0733008
0.0724988
0.071652
0.0707564
0.069816
0.0688305
0.0677936
0.0666883
0.0655127
0.0642622
0.0629049
0.0614903
0.0847386
0.0846659
0.0845724
0.0844666
0.0843512
0.0842271
0.0840921
0.0839452
0.0837841
0.0836078
0.083414
0.0832063
0.0829795
0.0827231
0.0824369
0.0821331
0.0818078
0.0814554
0.0810771
0.0806662
0.0802275
0.0797568
0.0792504
0.0787099
0.078129
0.0775115
0.0768524
0.0761504
0.0754045
0.0746111
0.0737712
0.0728806
0.0719427
0.0709571
0.0699173
0.0688062
0.0676215
0.0663582
0.0649861
0.0635516
0.086554
0.0864855
0.0863973
0.0862973
0.0861883
0.086071
0.0859433
0.0858042
0.0856516
0.0854845
0.0853008
0.0851011
0.0848821
0.0846354
0.0843609
0.084068
0.0837534
0.0834119
0.083045
0.082646
0.0822192
0.0817606
0.0812667
0.0807385
0.0801702
0.0795648
0.0789176
0.0782269
0.0774915
0.0767074
0.0758754
0.074991
0.0740568
0.0730723
0.072031
0.0709159
0.0697242
0.0684506
0.0670661
0.0656138
0.0883563
0.0882917
0.0882084
0.088114
0.0880109
0.0878999
0.0877787
0.0876467
0.0875017
0.0873425
0.0871672
0.0869759
0.0867654
0.0865282
0.0862641
0.0859818
0.085678
0.0853476
0.084992
0.084605
0.0841902
0.083744
0.0832626
0.0827471
0.0821915
0.0815987
0.0809637
0.0802848
0.0795604
0.0787865
0.0779632
0.0770859
0.0761565
0.0751742
0.0741327
0.0730154
0.071819
0.0705374
0.0691428
0.067675
0.0901439
0.0900829
0.0900044
0.0899152
0.0898177
0.0897125
0.0895976
0.0894721
0.089334
0.0891823
0.0890146
0.0888314
0.0886293
0.0884013
0.0881473
0.0878752
0.0875819
0.0872625
0.0869182
0.0865429
0.0861402
0.0857062
0.0852375
0.0847347
0.084192
0.0836119
0.0829895
0.0823227
0.0816099
0.0808467
0.080033
0.0791638
0.0782402
0.0772605
0.0762201
0.0751027
0.073904
0.0726168
0.0712143
0.0697333
0.091915
0.0918575
0.0917835
0.0916993
0.0916071
0.0915075
0.0913985
0.0912792
0.0911478
0.091003
0.0908428
0.0906671
0.0904731
0.0902541
0.0900098
0.0897476
0.0894645
0.0891559
0.0888226
0.088459
0.0880682
0.0876465
0.0871903
0.0867002
0.0861705
0.0856033
0.0849936
0.0843394
0.0836385
0.0828868
0.0820834
0.0812231
0.0803063
0.0793287
0.0782912
0.077176
0.0759779
0.0746872
0.0732787
0.0717869
0.0936679
0.0936139
0.0935441
0.0934647
0.0933776
0.0932833
0.09318
0.0930667
0.0929416
0.0928035
0.0926503
0.092482
0.0922959
0.0920855
0.0918506
0.0915981
0.091325
0.0910268
0.0907044
0.0903523
0.0899732
0.0895636
0.0891199
0.0886425
0.0881258
0.0875715
0.0869748
0.0863334
0.085645
0.0849051
0.0841127
0.0832624
0.0823538
0.081382
0.080349
0.0792377
0.0780401
0.0767469
0.0753343
0.0738337
0.0954012
0.0953504
0.0952847
0.0952099
0.0951277
0.0950385
0.0949406
0.094833
0.0947139
0.0945823
0.094436
0.0942748
0.0940962
0.0938942
0.0936685
0.0934254
0.0931619
0.0928741
0.0925623
0.0922215
0.091854
0.0914562
0.091025
0.0905602
0.0900565
0.0895153
0.0889317
0.0883033
0.0876277
0.0869002
0.0861195
0.08528
0.0843809
0.0834169
0.0823901
0.081286
0.0800886
0.0787941
0.0773789
0.0758716
0.0971131
0.0970654
0.0970037
0.0969333
0.0968558
0.0967715
0.0966787
0.0965767
0.0964635
0.096338
0.0961983
0.096044
0.0958728
0.0956789
0.0954621
0.0952281
0.0949742
0.0946963
0.094395
0.0940652
0.0937091
0.0933232
0.0929042
0.092452
0.0919613
0.0914332
0.0908629
0.0902478
0.0895852
0.0888706
0.0881023
0.0872744
0.0863858
0.085431
0.0844116
0.0833136
0.0821197
0.0808262
0.0794107
0.0778987
0.0988023
0.0987575
0.0986996
0.0986333
0.0985603
0.0984807
0.098393
0.0982962
0.0981887
0.0980692
0.0979359
0.0977883
0.0976242
0.0974382
0.09723
0.0970049
0.0967602
0.0964922
0.0962011
0.0958822
0.0955373
0.0951631
0.0947563
0.0943165
0.0938388
0.0933239
0.0927669
0.0921653
0.0915161
0.0908148
0.0900594
0.089244
0.0883669
0.0874226
0.0864118
0.0853198
0.0841313
0.0828413
0.0814277
0.079913
0.100467
0.100425
0.100371
0.100309
0.10024
0.100165
0.100082
0.0999903
0.0998882
0.0997745
0.0996474
0.0995063
0.099349
0.0991708
0.0989709
0.0987545
0.0985189
0.0982605
0.0979794
0.0976711
0.0973373
0.0969746
0.0965798
0.0961525
0.0956878
0.095186
0.0946425
0.0940545
0.0934191
0.0927315
0.0919895
0.0911873
0.0903229
0.0893905
0.0883892
0.0873024
0.0861223
0.0848378
0.0834285
0.0819127
0.102106
0.102067
0.102016
0.101958
0.101893
0.101823
0.101744
0.101658
0.101561
0.101453
0.101331
0.101197
0.101046
0.100875
0.100684
0.100476
0.100249
0.0999998
0.0997286
0.0994308
0.0991078
0.0987565
0.0983737
0.0979587
0.0975069
0.0970183
0.0964884
0.0959142
0.0952928
0.0946193
0.0938912
0.0931029
0.0922522
0.0913336
0.090343
0.0892646
0.0880924
0.0868145
0.0854101
0.0838957
0.103719
0.103682
0.103634
0.10358
0.103519
0.103453
0.103379
0.103297
0.103205
0.103102
0.102987
0.102858
0.102714
0.102551
0.102367
0.102167
0.101949
0.101709
0.101448
0.10116
0.100848
0.100508
0.100137
0.099734
0.099295
0.0988197
0.0983034
0.0977432
0.097136
0.0964769
0.0957633
0.0949895
0.0941534
0.0932516
0.0922715
0.091203
0.0900399
0.0887696
0.087371
0.0858604
0.105303
0.105269
0.105224
0.105173
0.105116
0.105054
0.104984
0.104907
0.10482
0.104723
0.104613
0.10449
0.104353
0.104196
0.10402
0.103828
0.103618
0.103387
0.103135
0.102858
0.102556
0.102227
0.101868
0.101477
0.101051
0.100589
0.100086
0.0995403
0.0989475
0.0983033
0.0976046
0.0968458
0.0960248
0.0951382
0.0941715
0.0931151
0.0919627
0.0907015
0.0893083
0.0878052
0.106858
0.106826
0.106785
0.106737
0.106684
0.106625
0.10656
0.106487
0.106405
0.106313
0.106208
0.106091
0.10596
0.10581
0.105641
0.105457
0.105256
0.105033
0.10479
0.104523
0.104231
0.103913
0.103566
0.103187
0.102774
0.102325
0.101836
0.101305
0.100726
0.100097
0.099414
0.0986709
0.0978655
0.0969943
0.0960422
0.0949993
0.0938594
0.0926091
0.0912252
0.08973
0.108384
0.108354
0.108315
0.108271
0.108221
0.108166
0.108104
0.108035
0.107958
0.107871
0.107772
0.107661
0.107535
0.107392
0.10723
0.107053
0.10686
0.106646
0.106412
0.106154
0.105873
0.105566
0.105229
0.104863
0.104462
0.104027
0.103552
0.103035
0.102471
0.101858
0.10119
0.100464
0.099675
0.0988197
0.0978829
0.0968547
0.0957284
0.0944908
0.0931187
0.0916332
0.109878
0.10985
0.109814
0.109772
0.109726
0.109674
0.109616
0.109552
0.109479
0.109396
0.109303
0.109198
0.109077
0.10894
0.108785
0.108615
0.108429
0.108224
0.107999
0.10775
0.107479
0.107182
0.106858
0.106503
0.106115
0.105693
0.105232
0.104729
0.104181
0.103583
0.102932
0.102223
0.101452
0.100614
0.0996925
0.0986799
0.0975686
0.0963451
0.0949867
0.0935129
0.111339
0.111314
0.11128
0.111242
0.111198
0.11115
0.111095
0.111034
0.110966
0.110888
0.110799
0.1107
0.110584
0.110453
0.110305
0.110142
0.109964
0.109766
0.10955
0.109311
0.109049
0.108763
0.10845
0.108107
0.107732
0.107323
0.106876
0.106387
0.105855
0.105273
0.104639
0.103947
0.103198
0.102374
0.101469
0.100473
0.0993783
0.0981704
0.0968275
0.0953673
0.112768
0.112745
0.112714
0.112677
0.112637
0.112591
0.11254
0.112483
0.112418
0.112344
0.112261
0.112166
0.112056
0.11193
0.111789
0.111633
0.111462
0.111273
0.111065
0.110835
0.110583
0.110307
0.110005
0.109674
0.109311
0.108915
0.108482
0.108009
0.107492
0.106926
0.106309
0.105636
0.104905
0.104099
0.103212
0.102233
0.101156
0.0999652
0.0986396
0.0971948
0.114163
0.114141
0.114113
0.114079
0.114041
0.113999
0.113951
0.113897
0.113836
0.113766
0.113687
0.113597
0.113492
0.113372
0.113237
0.113088
0.112924
0.112743
0.112543
0.112322
0.11208
0.111814
0.111523
0.111203
0.110853
0.11047
0.110051
0.109593
0.109091
0.108542
0.107943
0.107289
0.106576
0.105788
0.104919
0.103959
0.1029
0.101728
0.100421
0.0989937
0.115524
0.115504
0.115477
0.115446
0.115411
0.115371
0.115326
0.115276
0.115218
0.115152
0.115077
0.114991