/*--------------------------------*- C++ -*----------------------------------*\
| =========                 |                                                 |
| \\      /  F ield         | OpenFOAM: The Open Source CFD Toolbox           |
|  \\    /   O peration     | Version:  5.x                                   |
|   \\  /    A nd           | Web:      www.OpenFOAM.org                      |
|    \\/     M anipulation  |                                                 |
\*---------------------------------------------------------------------------*/
FoamFile
{
    version     2.0;
    format      ascii;
    class       volScalarField;
    location    "500";
    object      p;
}
// * * * * * * * * * * * * * * * * * * * * * * * * * * * * * * * * * * * * * //

dimensions      [0 2 -2 0 0 0 0];

internalField   nonuniform List<scalar> 
26000
(
-0.000160221
0.110243
0.420404
0.317945
0.219838
0.269987
0.467051
0.756069
1.07407
1.36996
1.62223
1.82755
1.99884
2.15465
2.29341
2.4156
2.52511
2.62739
2.72153
2.81021
2.89324
2.97196
3.04862
3.12196
3.19326
3.26148
3.32634
3.38861
3.44781
3.50434
3.55774
3.60887
3.65825
3.70619
3.75301
3.79845
3.84215
3.88419
3.92617
3.96638
3.46953
2.73861
1.73261
0.851854
0.376222
0.170343
0.180469
0.388572
0.710532
1.05268
1.36286
1.6172
1.8278
2.01442
2.17704
2.3147
2.43754
2.55054
2.65362
2.75017
2.83936
2.92356
3.00487
3.08242
3.15766
3.22961
3.29774
3.3627
3.42442
3.48343
3.53923
3.59252
3.6438
3.69347
3.74192
3.78898
3.83421
3.87787
3.92093
3.96253
4.19981
3.68166
3.0006
2.16112
1.32777
0.680536
0.338418
0.289549
0.471624
0.777049
1.11096
1.41066
1.66069
1.88163
2.06707
2.22124
2.35559
2.47869
2.58959
2.6928
2.78813
2.87685
2.96223
3.04319
3.12147
3.19663
3.26801
3.33646
3.40112
3.46285
3.52124
3.57676
3.6301
3.68147
3.7315
3.77986
3.8264
3.87164
3.91565
3.95924
4.51969
4.07295
3.64698
3.13855
2.46799
1.71944
1.06416
0.639714
0.512561
0.633263
0.895535
1.1993
1.47694
1.73773
1.95305
2.12713
2.27439
2.40872
2.52843
2.63901
2.7411
2.83478
2.92477
3.00953
3.09098
3.1691
3.24288
3.31424
3.38161
3.44591
3.50673
3.56432
3.61962
3.67251
3.72397
3.77335
3.82099
3.86748
3.91205
3.95759
4.83695
4.46595
4.07308
3.6835
3.22347
2.6471
1.98836
1.37125
0.939659
0.77129
0.834537
1.04968
1.29892
1.57809
1.82366
2.0239
2.18743
2.33491
2.46503
2.58396
2.69354
2.79252
2.88741
2.9763
3.06119
3.14261
3.21882
3.293
3.36296
3.42974
3.49286
3.55244
3.60976
3.66422
3.71726
3.76791
3.81679
3.86451
3.90945
3.95701
5.02653
4.76142
4.43853
4.09568
3.72689
3.30386
2.78566
2.20154
1.6413
1.23391
1.04245
1.07519
1.21056
1.44573
1.69407
1.91657
2.09761
2.25953
2.40042
2.52757
2.64496
2.74949
2.84959
2.94285
3.03133
3.11645
3.19538
3.2724
3.3449
3.4141
3.47955
3.54111
3.60043
3.65639
3.71102
3.76296
3.81312
3.8622
3.90759
3.95742
5.14464
4.94858
4.70868
4.43232
4.12061
3.78027
3.38102
2.91173
2.38561
1.88892
1.5107
1.3398
1.30176
1.41521
1.60771
1.8247
2.01371
2.18755
2.33855
2.47325
2.59827
2.70831
2.8136
2.91112
3.00291
3.09159
3.17319
3.25299
3.32791
3.39946
3.4673
3.53086
3.59215
3.64957
3.70572
3.75884
3.81022
3.86062
3.90642
3.95876
5.2286
5.07262
4.89073
4.67991
4.42889
4.14742
3.82441
3.45449
3.02149
2.55429
2.1114
1.79929
1.59871
1.54774
1.62294
1.78608
1.95648
2.12957
2.28596
2.42605
2.55723
2.67169
2.78132
2.88268
2.9774
3.06934
3.1534
3.23574
3.31284
3.3865
3.45656
3.52198
3.58519
3.64407
3.70169
3.75591
3.80839
3.86
3.9061
3.961
5.29216
5.16301
5.018
4.85523
4.65906
4.43201
4.16653
3.86619
3.51826
3.12407
2.70639
2.34121
2.04315
1.84668
1.77891
1.84291
1.95784
2.10517
2.2538
2.39281
2.52654
2.64335
2.75567
2.85981
2.95667
3.0511
3.13712
3.22155
3.30052
3.37597
3.44793
3.51499
3.57993
3.64015
3.69913
3.7544
3.80788
3.86056
3.90685
3.96417
5.34127
5.23208
5.11235
4.98225
4.82769
4.64767
4.43248
4.18567
3.90182
3.57759
3.21941
2.86436
2.53922
2.25617
2.06771
2.01596
2.04636
2.13851
2.25839
2.38368
2.51256
2.62795
2.74024
2.84521
2.94284
3.03859
3.12577
3.21157
3.29186
3.36862
3.44206
3.51046
3.57684
3.6382
3.69833
3.75454
3.80887
3.86251
3.9089
3.96835
5.37987
5.28612
5.18506
5.07787
4.9529
4.80918
4.63643
4.43505
4.20173
3.93389
3.63549
3.31767
3.00959
2.7
2.44058
2.29057
2.23025
2.24718
2.31671
2.41134
2.52369
2.63104
2.7389
2.8418
2.93828
3.03367
3.12088
3.207
3.28785
3.36527
3.43961
3.50892
3.57634
3.6386
3.69963
3.75657
3.81159
3.86601
3.91244
3.97363
5.41065
5.32913
5.24247
5.15225
5.04863
4.93146
4.79184
4.62828
4.43713
4.21532
3.96778
3.69274
3.41855
3.12019
2.83772
2.62585
2.49161
2.43181
2.43844
2.48706
2.56921
2.65914
2.75613
2.8527
2.94528
3.03812
3.1239
3.20904
3.28947
3.36674
3.44126
3.51095
3.57889
3.64172
3.70331
3.76077
3.81623
3.8712
3.91764
3.98008
5.43549
5.36381
5.28854
5.21141
5.12381
5.02622
4.91143
4.77765
4.62123
4.43782
4.2327
3.99827
3.76083
3.49026
3.21556
2.97711
2.79639
2.67463
2.61954
2.61488
2.65603
2.71863
2.79687
2.88149
2.96633
3.05377
3.13619
3.21876
3.29757
3.37375
3.44761
3.51704
3.58491
3.64788
3.70963
3.76734
3.82298
3.87825
3.92465
3.98778
5.45571
5.39209
5.32598
5.25917
5.18401
5.10128
5.00519
4.89418
4.76529
4.61342
4.44348
4.24522
4.04257
3.80468
3.55307
3.31307
3.11147
2.94904
2.84391
2.78863
2.78453
2.81279
2.86511
2.93173
3.00417
3.08266
3.15923
3.2373
3.31301
3.38693
3.45918
3.5276
3.59474
3.65738
3.71883
3.77646
3.83199
3.88727
3.93358
3.99679
5.47227
5.41535
5.35674
5.2982
5.23289
5.16174
5.08002
4.98646
4.87894
4.75234
4.61107
4.44378
4.27222
4.0666
3.84376
3.61705
3.41356
3.23082
3.09157
2.99509
2.9482
2.93986
2.96175
3.00536
3.0609
3.12677
3.19457
3.26586
3.3367
3.40698
3.47648
3.54304
3.60869
3.67044
3.73111
3.78829
3.8434
3.89835
3.94452
4.00719
5.48591
5.43463
5.38223
5.33044
5.27305
5.2111
5.14067
5.06066
4.96973
4.86308
4.74479
4.60325
4.45837
4.28222
4.08858
3.88237
3.689
3.50199
3.34438
3.21927
3.13686
3.0941
3.08431
3.10191
3.13708
3.18708
3.24331
3.3055
3.36957
3.43465
3.50013
3.56378
3.62711
3.68731
3.74665
3.80296
3.85729
3.91159
3.95749
4.01907
5.49717
5.45069
5.40351
5.35729
5.30639
5.25186
5.19044
5.12114
5.04322
4.95232
4.85226
4.73178
4.60912
4.45867
4.29204
4.10861
3.93163
3.75115
3.58812
3.44706
3.33896
3.26748
3.22809
3.21904
3.23179
3.26342
3.30565
3.35665
3.41215
3.4705
3.53066
3.5903
3.65037
3.70824
3.76564
3.82058
3.87376
3.92705
3.97254
4.03251
5.50648
5.46412
5.42139
5.37983
5.33431
5.28586
5.23173
5.17104
5.10345
5.02505
4.93948
4.83609
4.73161
4.60291
4.46
4.29882
4.1405
3.97273
3.81342
3.66706
3.54341
3.45086
3.38659
3.35273
3.34288
3.35478
3.3812
3.41917
3.46447
3.51467
3.56832
3.62289
3.6788
3.73354
3.78831
3.84132
3.8929
3.9448
3.98966
4.0476
5.51417
5.47539
5.43647
5.39885
5.35784
5.31443
5.2663
5.21262
5.15337
5.085
5.011
4.92149
4.83174
4.72113
4.59841
4.45755
4.31775
4.16539
4.01538
3.8715
3.74113
3.63543
3.5525
3.49763
3.46686
3.45913
3.46887
3.49255
3.52627
3.56705
3.61305
3.66158
3.71248
3.76335
3.81485
3.86534
3.91483
3.96492
4.00887
4.06444
5.52051
5.48486
5.44923
5.41498
5.37778
5.33861
5.29547
5.24758
5.19514
5.13493
5.07025
4.99205
4.91426
4.81855
4.71271
4.5897
4.46698
4.33054
4.19261
4.05615
3.92582
3.81398
3.71886
3.64788
3.59936
3.57346
3.56678
3.57567
3.59694
3.62728
3.66466
3.70622
3.75134
3.79764
3.8453
3.89272
3.93967
3.98751
4.03019
4.0831
5.52571
5.49281
5.46005
5.42869
5.39476
5.35919
5.32024
5.27719
5.23038
5.1769
5.11983
5.05091
4.98285
4.8994
4.80753
4.69987
4.59229
4.47097
4.34599
4.21958
4.09386
3.98136
3.87992
3.79798
3.73566
3.69416
3.67236
3.66682
3.67538
3.69471
3.72273
3.75658
3.7952
3.83628
3.87953
3.92342
3.96741
4.01263
4.05366
4.10366
5.52994
5.49948
5.46924
5.44039
5.40927
5.37677
5.34138
5.30242
5.26032
5.21243
5.16164
5.10043
5.04036
4.96701
4.8867
4.79205
4.69756
4.58995
4.47764
4.36225
4.24389
4.13458
4.03151
3.94334
3.8714
3.8175
3.78265
3.76384
3.76009
3.76832
3.7866
3.81221
3.84378
3.87908
3.91742
3.95731
3.99796
4.04023
4.07928
4.12616
5.53334
5.50506
5.47704
5.45038
5.4217
5.39185
5.35951
5.32402
5.2859
5.24273
5.19717
5.14242
5.08895
5.024
4.95325
4.86961
4.78628
4.69077
4.5902
4.48578
4.37608
4.27237
4.17112
4.08063
4.00293
3.94001
3.89466
3.86432
3.84925
3.84679
3.85535
3.87249
3.89664
3.92574
3.95874
3.99423
4.03119
4.0702
4.10696
4.15061
5.53604
5.5097
5.48365
5.45891
5.43237
5.40482
5.37511
5.34261
5.30788
5.26871
5.22756
5.17825
5.13031
5.07239
5.00961
4.93527
4.86142
4.77643
4.68641
4.5923
4.49164
4.39476
4.29761
4.20777
4.12756
4.05882
4.00564
3.96587
3.9409
3.9286
3.92785
3.9366
3.9532
3.97585
4.00321
4.03397
4.06692
4.10241
4.1366
4.17689
5.53813
5.51353
5.48925
5.4662
5.44154
5.41599
5.38856
5.35865
5.32683
5.29109
5.25369
5.20903
5.16574
5.11375
5.05765
4.9912
4.92538
4.84948
4.76879
4.68406
4.5922
4.50263
4.41092
4.32379
4.24358
4.17178
4.11332
4.06633
4.03315
4.0122
4.00286
4.00358
4.01276
4.02888
4.05045
4.07626
4.10496
4.1367
4.16806
4.2049
5.5397
5.51666
5.49396
5.47241
5.44942
5.42564
5.40021
5.37255
5.34325
5.31046
5.27627
5.2356
5.19627
5.14931
5.09885
5.03914
4.98014
4.91207
4.83955
4.7632
4.67961
4.59729
4.51163
4.42852
4.35013
4.27749
4.21599
4.16391
4.12429
4.09607
4.07912
4.07243
4.07452
4.08424
4.1
4.12076
4.14505
4.17288
4.2012
4.23449
5.54081
5.5192
5.49791
5.47771
5.45619
5.43397
5.41029
5.38462
5.35751
5.32729
5.29587
5.25865
5.22271
5.18006
5.13441
5.08046
5.02729
4.96596
4.90056
4.83162
4.7556
4.68018
4.60074
4.52235
4.44699
4.37519
4.31248
4.25721
4.21287
4.17885
4.15542
4.14213
4.13765
4.14127
4.15135
4.16707
4.18689
4.21072
4.23584
4.26552
5.54152
5.5212
5.5012
5.4822
5.462
5.44118
5.41905
5.39512
5.36994
5.34196
5.31295
5.27874
5.24572
5.20678
5.16525
5.11627
5.0681
5.0126
4.9534
4.89096
4.82178
4.75277
4.67939
4.60603
4.53442
4.46465
4.40216
4.3453
4.29781
4.25941
4.23069
4.21171
4.20135
4.19931
4.20398
4.21478
4.23016
4.24996
4.2718
4.29781
5.54189
5.52275
5.50391
5.486
5.46699
5.44741
5.42667
5.40429
5.3808
5.35481
5.32789
5.29632
5.26584
5.23012
5.19214
5.14748
5.10361
5.05316
4.99937
4.94264
4.87957
4.81641
4.74879
4.68048
4.61298
4.54601
4.48479
4.42764
4.37834
4.33685
4.30403
4.28033
4.26485
4.25769
4.25732
4.26344
4.27451
4.29032
4.30885
4.33121
5.54196
5.5239
5.50613
5.48919
5.47126
5.4528
5.4333
5.4123
5.39032
5.36608
5.34102
5.31177
5.28352
5.25061
5.21571
5.17481
5.13466
5.08862
5.03955
4.98782
4.93022
4.87234
4.81007
4.74665
4.68337
4.61967
4.56044
4.50399
4.45399
4.41056
4.37472
4.34725
4.32746
4.31581
4.31088
4.31261
4.31956
4.33152
4.34677
4.36551
5.54178
5.52471
5.50791
5.49187
5.47491
5.45747
5.43908
5.41932
5.39869
5.37601
5.3526
5.32541
5.29911
5.26867
5.23646
5.19885
5.16196
5.11977
5.07484
5.02751
4.97476
4.92163
4.86427
4.80548
4.74637
4.68616
4.6294
4.57435
4.52452
4.48012
4.44224
4.41193
4.38862
4.37312
4.36415
4.36189
4.36498
4.37326
4.38533
4.40054
5.54138
5.52522
5.50931
5.49409
5.47802
5.4615
5.44412
5.42549
5.40607
5.38478
5.36284
5.33748
5.31292
5.28466
5.25482
5.22012
5.18608
5.14726
5.10598
5.06252
5.01409
4.96522
4.91234
4.85787
4.80276
4.74611
4.69207
4.63891
4.58992
4.54533
4.50626
4.47391
4.44787
4.42918
4.4167
4.41087
4.41043
4.41525
4.42427
4.4361
5.54079
5.52547
5.51038
5.49591
5.48066
5.46499
5.44853
5.43092
5.41258
5.39256
5.37193
5.34822
5.32521
5.29888
5.27113
5.23901
5.20748
5.17165
5.13359
5.09355
5.04897
5.00391
4.95509
4.90461
4.85329
4.80014
4.74894
4.69799
4.65032
4.60616
4.56659
4.53292
4.50484
4.48359
4.46818
4.45921
4.45559
4.45723
4.46338
4.472
5.54003
5.5255
5.51117
5.49739
5.4829
5.468
5.45238
5.4357
5.41836
5.39948
5.38004
5.35781
5.33618
5.31158
5.2857
5.25587
5.22657
5.19339
5.15818
5.12118
5.08003
5.03839
4.99323
4.94642
4.89864
4.84886
4.80052
4.75196
4.70594
4.66267
4.62317
4.58879
4.55931
4.53608
4.51826
4.50661
4.50018
4.49895
4.50243
4.50805
5.53914
5.52533
5.51171
5.49858
5.48478
5.4706
5.45576
5.43994
5.4235
5.40566
5.38729
5.3664
5.34603
5.32299
5.29877
5.27099
5.24367
5.21284
5.18018
5.14589
5.10781
5.06923
5.0274
4.98393
4.93943
4.89287
4.84733
4.80123
4.75707
4.71503
4.67605
4.64146
4.61111
4.58644
4.56671
4.55283
4.54396
4.54017
4.54123
4.54408
5.53813
5.525
5.51203
5.49951
5.48636
5.47284
5.45872
5.44368
5.42808
5.41119
5.39381
5.37414
5.3549
5.33326
5.31054
5.2846
5.25906
5.23035
5.19996
5.16808
5.13276
5.09694
5.05811
5.01769
4.97623
4.93269
4.88986
4.84622
4.80404
4.76346
4.72532
4.69094
4.66019
4.63454
4.61335
4.59766
4.58674
4.58071
4.57959
4.57993
5.53702
5.52453
5.51217
5.50021
5.48767
5.47478
5.46131
5.44701
5.43218
5.41617
5.39968
5.38112
5.36293
5.34255
5.3212
5.29691
5.27297
5.24616
5.21781
5.18811
5.15526
5.12192
5.08581
5.04819
5.00951
4.96879
4.92855
4.88733
4.84718
4.8082
4.77116
4.73731
4.70652
4.6803
4.65808
4.64096
4.62834
4.62039
4.61734
4.61544
5.53582
5.52393
5.51215
5.50072
5.48874
5.47644
5.46359
5.44997
5.43585
5.42065
5.405
5.38746
5.37022
5.351
5.33088
5.3081
5.2856
5.2605
5.23401
5.20625
5.17564
5.14455
5.11091
5.07583
5.03971
5.00163
4.96382
4.92494
4.88682
4.84954
4.81377
4.78067
4.75017
4.72371
4.70083
4.68263
4.66864
4.65908
4.65435
4.65047
5.53456
5.52323
5.512
5.50106
5.48962
5.47786
5.4656
5.45261
5.43916
5.4247
5.40982
5.39322
5.37686
5.3587
5.3397
5.3183
5.29712
5.27358
5.24875
5.22277
5.19418
5.16512
5.13373
5.10097
5.06721
5.03156
4.99605
4.95941
4.92329
4.88773
4.85334
4.82119
4.7912
4.7648
4.74155
4.7226
4.70755
4.69666
4.69051
4.68492
5.53324
5.52243
5.51172
5.50126
5.49032
5.47907
5.46736
5.45497
5.44214
5.42838
5.41422
5.39848
5.38293
5.36575
5.34779
5.32763
5.30766
5.28553
5.26222
5.23785
5.2111
5.1839
5.15454
5.12392
5.09231
5.05892
5.02556
4.99105
4.95687
4.92305
4.89009
4.85901
4.82974
4.80361
4.78027
4.76084
4.745
4.73306
4.72571
4.71867
5.53187
5.52157
5.51133
5.50132
5.49086
5.4801
5.46891
5.45708
5.44483
5.43172
5.41823
5.4033
5.38851
5.37223
5.35521
5.3362
5.31734
5.29651
5.27459
5.25169
5.22661
5.2011
5.17361
5.14493
5.11531
5.08402
5.05266
5.02017
4.98786
4.95573
4.92425
4.89433
4.8659
4.84023
4.81701
4.79734
4.78097
4.76821
4.75989
4.75165
5.53047
5.52064
5.51086
5.50128
5.49127
5.48098
5.47027
5.45897
5.44727
5.43477
5.4219
5.40772
5.39364
5.37819
5.36206
5.34411
5.32626
5.30662
5.28597
5.26442
5.24088
5.21691
5.19113
5.16423
5.13645
5.10709
5.07761
5.04702
5.01649
4.98602
4.95601
4.9273
4.89981
4.87475
4.85183
4.83211
4.81542
4.80208
4.79299
4.78378
5.52904
5.51966
5.51032
5.50114
5.49156
5.48171
5.47146
5.46066
5.44948
5.43756
5.42528
5.41179
5.39837
5.3837
5.36839
5.35142
5.33451
5.31596
5.29649
5.27617
5.25404
5.23149
5.20728
5.18202
5.15593
5.12836
5.10063
5.07183
5.043
5.01413
4.98557
4.95809
4.93162
4.90726
4.88479
4.86521
4.84838
4.83465
4.82498
4.81501
5.52758
5.51863
5.50971
5.50092
5.49175
5.48231
5.4725
5.46217
5.45148
5.4401
5.42838
5.41555
5.40275
5.38881
5.37426
5.35819
5.34216
5.32463
5.30624
5.28706
5.26622
5.24498
5.22221
5.19847
5.17394
5.14803
5.12193
5.0948
5.06759
5.04025
5.01312
4.98688
4.96146
4.93789
4.91597
4.89666
4.87986
4.86591
4.85582
4.84529
5.52612
5.51757
5.50904
5.50062
5.49184
5.4828
5.47341
5.46353
5.45331
5.44244
5.43124
5.41902
5.40681
5.39355
5.37971
5.36449
5.34927
5.33268
5.31529
5.29717
5.27753
5.2575
5.23606
5.21372
5.19063
5.16627
5.14169
5.11613
5.09044
5.06457
5.03882
5.01381
4.98946
4.96674
4.94546
4.92654
4.9099
4.89588
4.88552
4.8746
5.52464
5.51648
5.50833
5.50026
5.49185
5.48319
5.4742
5.46475
5.45497
5.44459
5.43389
5.42224
5.41059
5.39796
5.3848
5.37035
5.3559
5.34019
5.32373
5.30658
5.28805
5.26914
5.24894
5.22789
5.20615
5.18322
5.16006
5.13597
5.11171
5.08725
5.06283
5.03902
5.01576
4.99392
4.97335
4.95489
4.93853
4.92457
4.91407
4.90292
5.52315
5.51536
5.50757
5.49984
5.49179
5.4835
5.47489
5.46584
5.45648
5.44656
5.43633
5.42523
5.4141
5.40207
5.38954
5.37583
5.3621
5.3472
5.3316
5.31537
5.29787
5.28
5.26094
5.2411
5.2206
5.199
5.17717
5.15446
5.13156
5.10843
5.08529
5.06266
5.04047
5.01953
4.99971
4.9818
4.9658
4.95201
4.94148
4.93024
5.52167
5.51423
5.50678
5.49938
5.49167
5.48372
5.47547
5.46682
5.45786
5.44838
5.4386
5.42801
5.41738
5.40592
5.39398
5.38096
5.36789
5.35376
5.33898
5.3236
5.30705
5.29015
5.27216
5.25343
5.2341
5.21374
5.19314
5.17173
5.1501
5.12823
5.10632
5.08483
5.0637
5.04368
5.02464
5.00733
4.99176
4.97822
4.96777
4.95655
5.5202
5.51309
5.50597
5.49887
5.49149
5.48388
5.47598
5.46769
5.45912
5.45005
5.4407
5.4306
5.42044
5.40951
5.39814
5.38577
5.37333
5.35991
5.34589
5.33131
5.31565
5.29966
5.28266
5.26498
5.24672
5.22753
5.20809
5.18788
5.16746
5.14679
5.12604
5.10565
5.08556
5.06645
5.04821
5.03154
5.01646
5.00326
4.99296
4.98186
5.51873
5.51194
5.50513
5.49833
5.49126
5.48397
5.47641
5.46847
5.46027
5.4516
5.44265
5.43302
5.42331
5.41289
5.40204
5.39028
5.37844
5.36569
5.35238
5.33855
5.32372
5.30858
5.29251
5.2758
5.25856
5.24045
5.22209
5.20302
5.18373
5.16419
5.14456
5.12523
5.10615
5.08794
5.07051
5.0545
5.03996
5.02715
5.01707
5.00619
5.51728
5.51079
5.50428
5.49777
5.49099
5.48401
5.47676
5.46917
5.46132
5.45303
5.44447
5.43528
5.42599
5.41605
5.40571
5.39452
5.38325
5.37113
5.35849
5.34536
5.33132
5.31697
5.30176
5.28597
5.26967
5.25257
5.23523
5.21722
5.199
5.18054
5.16198
5.14366
5.12556
5.10823
5.09161
5.07628
5.0623
5.04993
5.04013
5.02954
5.51584
5.50965
5.50342
5.49718
5.49069
5.48401
5.47706
5.4698
5.46227
5.45435
5.44616
5.43739
5.42851
5.41903
5.40916
5.39852
5.38778
5.37626
5.36425
5.35178
5.33847
5.32487
5.31048
5.29554
5.28012
5.26397
5.24758
5.23058
5.21336
5.19591
5.17836
5.16102
5.14386
5.1274
5.11158
5.09694
5.08355
5.07165
5.06218
5.05193
5.51442
5.50851
5.50255
5.49658
5.49037
5.48396
5.47731
5.47035
5.46315
5.45557
5.44774
5.43937
5.43088
5.42183
5.41242
5.40229
5.39205
5.3811
5.36969
5.35784
5.34522
5.33232
5.31869
5.30455
5.28996
5.27469
5.2592
5.24314
5.22688
5.21039
5.1938
5.17739
5.16114
5.14552
5.13049
5.11654
5.10375
5.09236
5.08324
5.07338
5.51303
5.50738
5.50169
5.49597
5.49002
5.48388
5.47751
5.47085
5.46396
5.45671
5.44922
5.44122
5.43311
5.42447
5.41549
5.40585
5.39609
5.38567
5.37482
5.36356
5.35159
5.33935
5.32643
5.31304
5.29924
5.2848
5.27015
5.25498
5.23961
5.22404
5.20836
5.19284
5.17746
5.16266
5.1484
5.13514
5.12296
5.11208
5.10335
5.09392
5.51167
5.50627
5.50083
5.49535
5.48965
5.48377
5.47767
5.4713
5.4647
5.45776
5.4506
5.44296
5.4352
5.42696
5.41839
5.40921
5.3999
5.38999
5.37967
5.36897
5.35761
5.34599
5.33375
5.32106
5.30799
5.29434
5.28049
5.26615
5.25163
5.23691
5.2221
5.20743
5.19289
5.17888
5.16536
5.15278
5.14121
5.13086
5.12253
5.11357
5.51033
5.50518
5.49997
5.49472
5.48927
5.48364
5.4778
5.4717
5.46538
5.45875
5.45189
5.4446
5.43718
5.42931
5.42113
5.41239
5.40352
5.39408
5.38427
5.37409
5.3633
5.35227
5.34066
5.32864
5.31627
5.30335
5.29025
5.2767
5.26298
5.24907
5.23508
5.22122
5.20748
5.19423
5.18145
5.16953
5.15856
5.14874
5.14083
5.13235
5.50902
5.5041
5.49912
5.4941
5.48888
5.48348
5.47789
5.47205
5.466
5.45966
5.4531
5.44614
5.43905
5.43153
5.42372
5.4154
5.40693
5.39795
5.38861
5.37893
5.36869
5.35821
5.34721
5.33582
5.32409
5.31187
5.29947
5.28667
5.2737
5.26057
5.24735
5.23426
5.22129
5.20877
5.19669
5.18542
5.17505
5.16576
5.15828
5.15029
5.50775
5.50305
5.49829
5.49347
5.48848
5.48331
5.47796
5.47237
5.46658
5.46051
5.45424
5.44759
5.44081
5.43363
5.42618
5.41824
5.41017
5.40162
5.39273
5.38352
5.3738
5.36384
5.3534
5.34261
5.33149
5.31994
5.3082
5.2961
5.28384
5.27144
5.25897
5.24661
5.23437
5.22255
5.21115
5.20051
5.19072
5.18195
5.17491
5.16741
5.5065
5.50201
5.49746
5.49286
5.48807
5.48313
5.478
5.47265
5.46711
5.46131
5.45531
5.44896
5.44247
5.43562
5.42851
5.42094
5.41325
5.4051
5.39664
5.38788
5.37864
5.36918
5.35928
5.34904
5.33851
5.32757
5.31647
5.30502
5.29345
5.28173
5.26996
5.2583
5.24675
5.2356
5.22486
5.21483
5.2056
5.19736
5.19074
5.18374
5.50529
5.501
5.49666
5.49224
5.48767
5.48293
5.47803
5.47291
5.46761
5.46206
5.45631
5.45025
5.44405
5.43751
5.43071
5.42351
5.41616
5.40841
5.40035
5.39201
5.38324
5.37425
5.36485
5.35514
5.34516
5.33481
5.3243
5.31348
5.30254
5.29148
5.28037
5.26937
5.25849
5.24798
5.23786
5.22842
5.21975
5.21201
5.20582
5.19931
5.50411
5.50002
5.49586
5.49164
5.48726
5.48273
5.47803
5.47313
5.46806
5.46275
5.45726
5.45147
5.44554
5.43929
5.4328
5.42594
5.41893
5.41154
5.40388
5.39594
5.3876
5.37906
5.37014
5.36093
5.35147
5.34167
5.33172
5.3215
5.31116
5.30072
5.29024
5.27986
5.26961
5.25972
5.2502
5.24132
5.23318
5.22594
5.22017
5.21414
5.50297
5.49906
5.49509
5.49105
5.48685
5.48252
5.47802
5.47334
5.46848
5.46341
5.45815
5.45262
5.44695
5.44098
5.43479
5.42825
5.42156
5.41453
5.40722
5.39967
5.39175
5.38363
5.37516
5.36643
5.35746
5.34818
5.33876
5.3291
5.31933
5.30947
5.29959
5.28981
5.28016
5.27085
5.2619
5.25357
5.24595
5.23918
5.23381
5.22825
5.50186
5.49813
5.49433
5.49047
5.48645
5.48231
5.478
5.47352
5.46887
5.46402
5.459
5.45371
5.44829
5.44259
5.43668
5.43044
5.42406
5.41736
5.41041
5.40322
5.39569
5.38797
5.37993
5.37165
5.36314
5.35436
5.34544
5.33631
5.32708
5.31778
5.30846
5.29924
5.29016
5.2814
5.273
5.26519
5.25806
5.25176
5.24678
5.24168
5.50079
5.49723
5.4936
5.4899
5.48606
5.48209
5.47797
5.47368
5.46924
5.4646
5.45979
5.45474
5.44956
5.44412
5.43847
5.43253
5.42644
5.42006
5.41344
5.40659
5.39943
5.3921
5.38446
5.3766
5.36854
5.36022
5.35179
5.34315
5.33443
5.32565
5.31687
5.30819
5.29964
5.29141
5.28353
5.27622
5.26956
5.2637
5.25911
5.25445
5.49975
5.49635
5.49288
5.48934
5.48567
5.48187
5.47793
5.47383
5.46958
5.46514
5.46054
5.45572
5.45077
5.44557
5.44018
5.43451
5.42871
5.42262
5.41632
5.4098
5.40299
5.39602
5.38877
5.38132
5.37367
5.36579
5.35781
5.34964
5.34141
5.33313
5.32484
5.31667
5.30864
5.30091
5.29352
5.28668
5.28047
5.27504
5.27081
5.26658
5.49875
5.49551
5.49219
5.48881
5.48529
5.48166
5.47789
5.47396
5.46989
5.46565
5.46126
5.45665
5.45191
5.44695
5.4418
5.4364
5.43086
5.42506
5.41906
5.41285
5.40638
5.39975
5.39287
5.38579
5.37855
5.37108
5.36353
5.35581
5.34803
5.34021
5.33241
5.32472
5.31716
5.30991
5.303
5.2966
5.29083
5.28579
5.28191
5.27809
5.49779
5.49469
5.49152
5.48828
5.48492
5.48144
5.47784
5.47408
5.47019
5.46613
5.46193
5.45753
5.453
5.44826
5.44335
5.43819
5.43291
5.42739
5.42167
5.41576
5.4096
5.4033
5.39677
5.39005
5.38318
5.37611
5.36896
5.36166
5.35431
5.34694
5.33958
5.33235
5.32525
5.31845
5.31198
5.30601
5.30064
5.29599
5.29244
5.28901
5.49687
5.4939
5.49088
5.48778
5.48456
5.48123
5.47778
5.47419
5.47047
5.46659
5.46257
5.45836
5.45404
5.44951
5.44482
5.4399
5.43486
5.4296
5.42415
5.41852
5.41267
5.40668
5.40047
5.3941
5.38758
5.38088
5.37411
5.36721
5.36027
5.35332
5.34639
5.33958
5.33292
5.32654
5.32049
5.31492
5.30994
5.30566
5.30243
5.29935
5.49598
5.49315
5.49025
5.48729
5.48421
5.48103
5.47773
5.47429
5.47073
5.46702
5.46318
5.45916
5.45502
5.4507
5.44622
5.44153
5.43672
5.4317
5.42651
5.42115
5.41559
5.40989
5.40399
5.39794
5.39176
5.38542
5.379
5.37248
5.36593
5.35937
5.35284
5.34643
5.34018
5.3342
5.32855
5.32337
5.31875
5.31481
5.31188
5.30915
5.49512
5.49242
5.48966
5.48682
5.48388
5.48083
5.47767
5.47438
5.47098
5.46743
5.46375
5.45991
5.45596
5.45183
5.44755
5.44308
5.43849
5.4337
5.42876
5.42366
5.41836
5.41294
5.40734
5.40159
5.39573
5.38972
5.38365
5.37748
5.37129
5.3651
5.35896
5.35293
5.34706
5.34146
5.33618
5.33136
5.32709
5.32348
5.32082
5.31842
5.4943
5.49173
5.48908
5.48637
5.48355
5.48064
5.47761
5.47447
5.47121
5.46781
5.4643
5.46063
5.45685
5.45291
5.44882
5.44455
5.44017
5.43561
5.43089
5.42604
5.421
5.41584
5.41052
5.40506
5.3995
5.39381
5.38806
5.38223
5.37638
5.37054
5.36475
5.35908
5.35358
5.34834
5.34341
5.33893
5.33498
5.33167
5.32928
5.32718
5.49352
5.49106
5.48853
5.48593
5.48324
5.48045
5.47755
5.47455
5.47143
5.46818
5.46482
5.46131
5.4577
5.45393
5.45002
5.44595
5.44177
5.43742
5.43293
5.4283
5.4235
5.41859
5.41354
5.40836
5.40308
5.39768
5.39224
5.38672
5.3812
5.37569
5.37024
5.36491
5.35974
5.35484
5.35024
5.34608
5.34244
5.33941
5.33727
5.33545
5.49278
5.49042
5.488
5.48552
5.48294
5.48027
5.4775
5.47462
5.47163
5.46853
5.46531
5.46196
5.4585
5.4549
5.45117
5.44728
5.44329
5.43914
5.43486
5.43045
5.42588
5.42121
5.4164
5.41148
5.40647
5.40136
5.3962
5.39098
5.38576
5.38057
5.37543
5.37042
5.36558
5.36099
5.3567
5.35284
5.34948
5.34672
5.34481
5.34325
5.49206
5.48981
5.4875
5.48512
5.48265
5.4801
5.47745
5.47469
5.47183
5.46886
5.46578
5.46257
5.45927
5.45583
5.45226
5.44855
5.44474
5.44078
5.43669
5.43249
5.42814
5.42369
5.41912
5.41445
5.40969
5.40484
5.39995
5.39502
5.39009
5.38518
5.38034
5.37563
5.37109
5.3668
5.3628
5.35922
5.35613
5.35362
5.35192
5.3506
5.49139
5.48923
5.48702
5.48474
5.48238
5.47993
5.47739
5.47475
5.47202
5.46917
5.46623
5.46316
5.46
5.4567
5.4533
5.44975
5.44611
5.44233
5.43843
5.43442
5.43028
5.42605
5.4217
5.41726
5.41274
5.40814
5.40351
5.39883
5.39417
5.38955
5.38499
5.38056
5.37629
5.37228
5.36856
5.36524
5.3624
5.36012
5.35862
5.35751
5.49074
5.48868
5.48657
5.48439
5.48212
5.47978
5.47734
5.47482
5.4722
5.46947
5.46665
5.46372
5.46069
5.45754
5.45428
5.45089
5.44741
5.4438
5.44008
5.43626
5.43231
5.42828
5.42414
5.41992
5.41562
5.41126
5.40687
5.40244
5.39804
5.39367
5.38937
5.38521
5.38121
5.37745
5.37399
5.37091
5.3683
5.36623
5.36492
5.36401
5.49013
5.48816
5.48613
5.48404
5.48188
5.47963
5.4773
5.47487
5.47236
5.46975
5.46705
5.46424
5.46134
5.45833
5.45521
5.45197
5.44865
5.4452
5.44165
5.438
5.43424
5.43039
5.42645
5.42243
5.41835
5.41421
5.41004
5.40585
5.40168
5.39756
5.39351
5.38959
5.38584
5.38233
5.3791
5.37625
5.37385
5.37198
5.37083
5.37011
5.48955
5.48767
5.48573
5.48372
5.48164
5.47949
5.47725
5.47493
5.47252
5.47002
5.46743
5.46474
5.46196
5.45908
5.45609
5.453
5.44981
5.44652
5.44313
5.43964
5.43605
5.43239
5.42863
5.42481
5.42093
5.41699
5.41304
5.40907
5.40512
5.40122
5.39741
5.39372
5.3902
5.38691
5.38391
5.38127
5.37907
5.37738
5.37639
5.37582
5.48901
5.4872
5.48534
5.48342
5.48142
5.47936
5.47721
5.47498
5.47268
5.47028
5.4678
5.46521
5.46255
5.45979
5.45693
5.45397
5.45092
5.44777
5.44453
5.4412
5.43777
5.43427
5.4307
5.42705
5.42336
5.41962
5.41586
5.4121
5.40836
5.40468
5.40108
5.3976
5.3943
5.39122
5.38842
5.38598
5.38396
5.38245
5.38159
5.38117
5.48849
5.48676
5.48497
5.48313
5.48122
5.47923
5.47717
5.47504
5.47282
5.47052
5.46814
5.46566
5.46311
5.46046
5.45772
5.45488
5.45196
5.44895
5.44585
5.44266
5.43939
5.43605
5.43264
5.42917
5.42565
5.42209
5.41852
5.41495
5.41141
5.40792
5.40452
5.40125
5.39815
5.39527
5.39266
5.3904
5.38855
5.38719
5.38646
5.38617
5.48801
5.48635
5.48463
5.48286
5.48102
5.47912
5.47714
5.47509
5.47296
5.47075
5.46846
5.46608
5.46363
5.46109
5.45846
5.45574
5.45295
5.45006
5.44709
5.44404
5.44092
5.43772
5.43447
5.43115
5.4278
5.42441
5.42102
5.41763
5.41427
5.41097
5.40776
5.40467
5.40176
5.39906
5.39663
5.39454
5.39284
5.39162
5.39101
5.39083
5.48756
5.48596
5.48431
5.48261
5.48084
5.47901
5.47711
5.47513
5.47309
5.47096
5.46877
5.46648
5.46413
5.46169
5.45917
5.45655
5.45387
5.4511
5.44826
5.44534
5.44235
5.4393
5.43618
5.43302
5.42982
5.42659
5.42336
5.42014
5.41695
5.41382
5.41079
5.40788
5.40513
5.4026
5.40034
5.3984
5.39685
5.39576
5.39525
5.39518
5.48713
5.4856
5.48401
5.48237
5.48067
5.47891
5.47708
5.47518
5.47321
5.47117
5.46905
5.46686
5.46459
5.46225
5.45982
5.45732
5.45474
5.45209
5.44936
5.44656
5.44369
5.44077
5.43779
5.43477
5.43171
5.42863
5.42556
5.42249
5.41946
5.41649
5.41362
5.41087
5.40828
5.40591
5.4038
5.402
5.40059
5.39961
5.3992
5.39922
5.48673
5.48526
5.48373
5.48215
5.48051
5.47882
5.47705
5.47522
5.47333
5.47136
5.46932
5.46721
5.46503
5.46277
5.46044
5.45803
5.45556
5.453
5.45038
5.4477
5.44495
5.44215
5.43929
5.4364
5.43348
5.43054
5.4276
5.42468
5.4218
5.41898
5.41625
5.41366
5.41122
5.40899
5.40702
5.40536
5.40406
5.4032
5.40287
5.40297
5.48637
5.48494
5.48347
5.48195
5.48037
5.47873
5.47703
5.47527
5.47344
5.47154
5.46958
5.46754
5.46544
5.46326
5.46102
5.4587
5.45632
5.45386
5.45134
5.44876
5.44612
5.44343
5.44069
5.43792
5.43513
5.43231
5.42951
5.42672
5.42397
5.42129
5.41871
5.41625
5.41395
5.41185
5.41001
5.40847
5.40728
5.40652
5.40627
5.40645
5.48602
5.48465
5.48323
5.48176
5.48024
5.47865
5.47701
5.47531
5.47354
5.47171
5.46981
5.46785
5.46582
5.46372
5.46156
5.45932
5.45702
5.45466
5.45223
5.44975
5.44721
5.44462
5.44199
5.43933
5.43665
5.43396
5.43127
5.42861
5.42599
5.42344
5.42098
5.41864
5.41647
5.4145
5.41277
5.41134
5.41026
5.40959
5.40941
5.40966
5.48571
5.48438
5.48301
5.48159
5.48011
5.47858
5.47699
5.47535
5.47364
5.47187
5.47003
5.46814
5.46617
5.46415
5.46205
5.4599
5.45768
5.4554
5.45306
5.45066
5.44822
5.44573
5.4432
5.44064
5.43806
5.43548
5.43291
5.43036
5.42785
5.42542
5.42307
5.42086
5.4188
5.41694
5.41532
5.41399
5.41301
5.41242
5.41231
5.41263
5.48542
5.48414
5.48281
5.48143
5.48
5.47852
5.47698
5.47538
5.47373
5.47201
5.47024
5.4684
5.4665
5.46454
5.46252
5.46043
5.45828
5.45608
5.45382
5.45151
5.44914
5.44674
5.44431
5.44184
5.43936
5.43688
5.43441
5.43196
5.42956
5.42723
5.425
5.42289
5.42094
5.41918
5.41766
5.41643
5.41553
5.41501
5.41497
5.41535
5.48516
5.48392
5.48263
5.48129
5.4799
5.47846
5.47697
5.47542
5.47382
5.47215
5.47043
5.46864
5.4668
5.4649
5.46294
5.46092
5.45884
5.4567
5.45451
5.45228
5.44999
5.44768
5.44532
5.44294
5.44055
5.43816
5.43578
5.43343
5.43113
5.4289
5.42676
5.42475
5.42289
5.42123
5.4198
5.41865
5.41783
5.41739
5.4174
5.41784
5.48492
5.48372
5.48246
5.48116
5.47981
5.47841
5.47696
5.47546
5.47389
5.47228
5.4706
5.46887
5.46708
5.46523
5.46333
5.46136
5.45934
5.45727
5.45515
5.45298
5.45077
5.44852
5.44624
5.44395
5.44164
5.43933
5.43703
5.43477
5.43255
5.43041
5.42836
5.42643
5.42466
5.42308
5.42174
5.42066
5.41991
5.41954
5.4196
5.4201
5.48471
5.48354
5.48232
5.48105
5.47974
5.47837
5.47696
5.47549
5.47397
5.47239
5.47076
5.46907
5.46733
5.46553
5.46368
5.46177
5.4598
5.45779
5.45573
5.45362
5.45147
5.44929
5.44708
5.44485
5.44261
5.44038
5.43816
5.43597
5.43383
5.43177
5.4298
5.42795
5.42626
5.42475
5.42348
5.42248
5.42179
5.42148
5.42159
5.42215
5.48453
5.48338
5.48219
5.48095
5.47967
5.47834
5.47695
5.47552
5.47404
5.4725
5.47091
5.46926
5.46756
5.4658
5.46399
5.46213
5.46021
5.45825
5.45624
5.45419
5.4521
5.44997
5.44782
5.44566
5.44349
5.44131
5.43916
5.43704
5.43498
5.43298
5.43108
5.4293
5.42768
5.42624
5.42503
5.42409
5.42347
5.4232
5.42337
5.42397
5.48436
5.48324
5.48208
5.48087
5.47961
5.47831
5.47696
5.47555
5.4741
5.47259
5.47103