/*--------------------------------*- C++ -*----------------------------------*\
| =========                 |                                                 |
| \\      /  F ield         | OpenFOAM: The Open Source CFD Toolbox           |
|  \\    /   O peration     | Version:  5.x                                   |
|   \\  /    A nd           | Web:      www.OpenFOAM.org                      |
|    \\/     M anipulation  |                                                 |
\*---------------------------------------------------------------------------*/
FoamFile
{
    version     2.0;
    format      ascii;
    class       surfaceScalarField;
    location    "500";
    object      phi;
}
// * * * * * * * * * * * * * * * * * * * * * * * * * * * * * * * * * * * * * //

dimensions      [0 3 -1 0 0 0 0];

internalField   nonuniform List<scalar> 
51690
(
0.000889725
0.000230621
-0.00112026
0.000547713
0.000342011
0.000263289
0.000284424
7.71578e-05
0.000186131
-3.09427e-05
0.0001081
-9.15899e-05
6.06468e-05
-0.000114329
2.27387e-05
-0.000116621
2.29163e-06
-0.000106966
-9.65627e-06
-9.43276e-05
-1.26378e-05
-8.20686e-05
-1.22584e-05
-7.09672e-05
-1.11004e-05
-6.52537e-05
-5.71239e-06
-5.55891e-05
-9.66327e-06
-4.84664e-05
-7.1215e-06
-4.29467e-05
-5.51905e-06
-3.853e-05
-4.41632e-06
-3.42095e-05
-4.32057e-06
-3.05274e-05
-3.68238e-06
-2.74148e-05
-3.11303e-06
-2.37424e-05
-3.67307e-06
-1.99754e-05
-3.76779e-06
-1.54324e-05
-4.54342e-06
-1.07388e-05
-4.69344e-06
-5.98096e-06
-4.75707e-06
-1.04237e-06
-4.93834e-06
3.43838e-06
-4.48117e-06
7.57918e-06
-4.14104e-06
1.04553e-05
-2.8755e-06
1.196e-05
-1.50391e-06
1.24121e-05
-4.5087e-07
1.19943e-05
4.18519e-07
1.13994e-05
5.95863e-07
1.03242e-05
1.07577e-06
9.16851e-06
1.15636e-06
7.1045e-06
2.06479e-06
4.12833e-06
2.97693e-06
7.23505e-07
3.40711e-06
-6.19458e-06
6.92435e-06
8.50994e-07
-7.03978e-06
0.000945981
0.00013397
-0.00084933
0.000940757
0.000347236
0.000805479
0.000419701
0.000591952
0.000399659
0.000387201
0.00031285
0.000232131
0.000215717
0.000130388
0.000124481
7.39567e-05
5.87231e-05
4.78352e-05
1.6465e-05
3.93085e-05
-4.11113e-06
3.88244e-05
-1.17741e-05
4.19168e-05
-1.41923e-05
4.31381e-05
-6.93315e-06
4.51117e-05
-1.16363e-05
4.83703e-05
-1.03798e-05
5.10494e-05
-8.19799e-06
5.29367e-05
-6.30362e-06
5.45821e-05
-5.96625e-06
5.6166e-05
-5.26662e-06
5.74779e-05
-4.42527e-06
5.89064e-05
-5.1021e-06
6.00872e-05
-4.94897e-06
6.14712e-05
-5.92778e-06
6.31913e-05
-6.41361e-06
6.49903e-05
-6.55602e-06
6.72225e-05
-7.1706e-06
6.92803e-05
-6.53915e-06
7.12289e-05
-6.08975e-06
7.29891e-05
-4.63562e-06
7.45481e-05
-3.06275e-06
7.58413e-05
-1.74378e-06
7.66336e-05
-3.73574e-07
7.71392e-05
9.04587e-08
7.71112e-05
1.10399e-06
7.6689e-05
1.57863e-06
7.53475e-05
3.40664e-06
7.32849e-05
5.03975e-06
7.0057e-05
6.63593e-06
6.49578e-05
1.20251e-05
4.15699e-06
6.16538e-05
0.000818296
4.90417e-05
-0.000733367
0.000912311
0.00025322
0.000948766
0.000383247
0.000891807
0.000456617
0.000757225
0.000447432
0.000582732
0.00039021
0.000409539
0.000297674
0.000271131
0.00019713
0.00017687
0.000110726
0.000124538
4.82216e-05
9.92691e-05
1.34947e-05
9.12727e-05
-6.19575e-06
8.69177e-05
-2.57796e-06
8.55639e-05
-1.02823e-05
8.60563e-05
-1.08719e-05
8.83033e-05
-1.04449e-05
9.03511e-05
-8.35143e-06
9.26412e-05
-8.25633e-06
9.51861e-05
-7.81168e-06
9.76505e-05
-6.88988e-06
0.00010068
-8.13125e-06
0.000103396
-7.66579e-06
0.000106262
-8.79343e-06
0.000109321
-9.47313e-06
0.000112225
-9.45961e-06
0.000115413
-1.03587e-05
0.000118206
-9.33218e-06
0.000121003
-8.88707e-06
0.000123701
-7.33375e-06
0.000126292
-5.65296e-06
0.000128673
-4.12503e-06
0.000130433
-2.13318e-06
0.000131791
-1.26747e-06
0.000132363
5.32938e-07
0.000132494
1.44768e-06
0.000131919
3.98149e-06
0.000130891
6.06752e-06
0.000128772
8.75597e-06
0.00012431
1.64874e-05
7.31705e-06
0.000121152
0.000737892
-6.01826e-06
-0.000682832
0.000812673
0.00017844
0.000893923
0.000301997
0.000944508
0.000406031
0.000930971
0.000460969
0.000846792
0.000474389
0.000708471
0.000435996
0.000550736
0.000354864
0.000403558
0.000257904
0.000292546
0.000159234
0.00021922
8.6821e-05
0.000180829
3.21951e-05
0.000157156
2.10954e-05
0.000144647
2.22703e-06
0.000137963
-4.18761e-06
0.000136763
-9.24545e-06
0.000136829
-8.41672e-06
0.000138524
-9.95227e-06
0.000141145
-1.04325e-05
0.000143927
-9.67219e-06
0.000147758
-1.19618e-05
0.000151278
-1.11866e-05
0.000155043
-1.25587e-05
0.000158993
-1.34231e-05
0.000162762
-1.32289e-05
0.000167066
-1.46621e-05
0.000171131
-1.33977e-05
0.00017541
-1.31661e-05
0.000179485
-1.14089e-05
0.000183262
-9.43049e-06
0.000186674
-7.53632e-06
0.000189234
-4.69317e-06
0.000191208
-3.24204e-06
0.000192077
-3.35964e-07
0.00019235
1.17433e-06
0.000191741
4.59111e-06
0.000190604
7.20387e-06
0.000188359
1.10013e-05
0.000183607
2.12405e-05
1.06155e-05
0.000180309
0.000689103
-5.02019e-05
-0.000644919
0.000744532
0.00012301
0.000814279
0.00023225
0.000890095
0.000330215
0.000945788
0.000405276
0.000956109
0.000464069
0.000906318
0.000485786
0.000802881
0.000458302
0.000665758
0.000395027
0.00052853
0.000296461
0.000411269
0.000204082
0.000331228
0.000112237
0.000273157
7.91665e-05
0.000237138
3.82462e-05
0.000215171
1.77796e-05
0.000205603
3.22578e-07
0.000200013
-2.8266e-06
0.00019836
-8.29949e-06
0.000198887
-1.09595e-05
0.000200219
-1.10047e-05
0.000203506
-1.52483e-05
0.000206773
-1.44547e-05
0.000210736
-1.65217e-05
0.000215134
-1.78207e-05
0.000219453
-1.75486e-05
0.000224586
-1.97942e-05
0.000229459
-1.8271e-05
0.000234691
-1.83985e-05
0.000239741
-1.64591e-05
0.000244508
-1.41972e-05
0.000248968
-1.19964e-05
0.000252539
-8.26313e-06
0.000255463
-6.16611e-06
0.000257004
-1.87692e-06
0.000257649
5.29586e-07
0.000256896
5.3442e-06
0.000255226
8.87401e-06
0.000252154
1.40733e-05
0.000246191
2.72037e-05
1.4672e-05
0.000242135
0.00065847
-8.86701e-05
-0.000620002
0.000704045
7.74358e-05
0.000758149
0.000178145
0.000823877
0.000264488
0.000893416
0.000335738
0.000950702
0.000406783
0.000974456
0.000462033
0.000949313
0.000483444
0.000873005
0.000471335
0.000763162
0.000406304
0.000640724
0.000326521
0.000535086
0.000217875
0.000442871
0.000171381
0.000374684
0.000106434
0.000327512
6.49513e-05
0.00030207
2.57651e-05
0.000285114
1.41291e-05
0.000276078
7.36385e-07
0.000271642
-6.52342e-06
0.00026947
-8.83272e-06
0.000270895
-1.66735e-05
0.000272933
-1.64929e-05
0.000276344
-1.99326e-05
0.000280584
-2.20606e-05
0.000284899
-2.18635e-05
0.000290339
-2.52348e-05
0.000295476
-2.34081e-05
0.000301133
-2.40554e-05
0.00030666
-2.19867e-05
0.000311971
-1.9508e-05
0.000317066
-1.70908e-05
0.000321242
-1.24397e-05
0.000324822
-9.7457e-06
0.000326902
-3.95708e-06
0.000327971
-5.40359e-07
0.000327275
6.04019e-06
0.000325275
1.08745e-05
0.000321361
1.79871e-05
0.000313838
3.47273e-05
1.99581e-05
0.000308552
0.000638077
-0.000123716
-0.000603031
0.000678733
3.67805e-05
0.000724049
0.000132829
0.000777063
0.000211474
0.000837931
0.000274869
0.000902777
0.000341937
0.000959571
0.000405239
0.000990706
0.000452309
0.000981663
0.000480378
0.000929815
0.000458153
0.000843377
0.000412959
0.000746926
0.000314326
0.000643893
0.000274415
0.000552077
0.00019825
0.000478445
0.000138583
0.000432043
7.21677e-05
0.000398228
4.79437e-05
0.000377246
2.1719e-05
0.000364285
6.43756e-06
0.000355774
-3.21954e-07
0.000353184
-1.40835e-05
0.000352211
-1.55203e-05
0.000353672
-2.13936e-05
0.000356674
-2.50622e-05
0.000360158
-2.53475e-05
0.000365351
-3.04284e-05
0.000370333
-2.83897e-05
0.000376047
-2.97696e-05
0.000381697
-2.76373e-05
0.000387196
-2.50064e-05
0.000392544
-2.24387e-05
0.000396918
-1.68142e-05
0.000400755
-1.35824e-05
0.000402985
-6.1874e-06
0.000404175
-1.72958e-06
0.000403368
6.84659e-06
0.000401006
1.32363e-05
0.0003963
2.26938e-05
0.000387237
4.37907e-05
2.66465e-05
0.000380549
0.000623644
-0.000156527
-0.000590833
0.000661508
-1.08361e-06
0.000702677
9.166e-05
0.000748371
0.000165779
0.000799401
0.000223839
0.000856982
0.000284356
0.000918038
0.000344182
0.000972544
0.000397803
0.00100723
0.000445691
0.00100969
0.000455695
0.000975539
0.000447109
0.00091537
0.000374495
0.000831875
0.00035791
0.000740218
0.000289907
0.000653491
0.000225311
0.000589965
0.000135694
0.000538726
9.91826e-05
0.000503289
5.71563e-05
0.000478915
3.08114e-05
0.000461321
1.7272e-05
0.000452395
-5.15727e-06
0.000446476
-9.60205e-06
0.000444464
-1.9381e-05
0.00044501
-2.56081e-05
0.000446631
-2.69684e-05
0.000450723
-3.45212e-05
0.00045485
-3.25164e-05
0.000460076
-3.49956e-05
0.000465395
-3.29568e-05
0.000470691
-3.03021e-05
0.000475965
-2.77123e-05
0.000480243
-2.10926e-05
0.00048404
-1.73797e-05
0.000486093
-8.24021e-06
0.000487067
-2.70355e-06
0.000485843
8.07008e-06
0.000482894
1.61852e-05
0.000477264
2.8324e-05
0.000466612
5.44429e-05
3.47949e-05
0.000458464
0.000613033
-0.000187723
-0.000581837
0.000648946
-3.69959e-05
0.000687851
5.2755e-05
0.000730064
0.000123566
0.00077541
0.000178493
0.000825471
0.000234296
0.000880799
0.000288854
0.000937983
0.000340618
0.00099014
0.000393534
0.00102556
0.000420272
0.00103505
0.000437622
0.00101715
0.000392395
0.000970938
0.000404121
0.000902558
0.000358286
0.000823595
0.000304275
0.000755864
0.000203424
0.000694471
0.000160576
0.000647245
0.000104382
0.000611733
6.63238e-05
0.000584276
4.47289e-05
0.000567719
1.13999e-05
0.00055548
2.63626e-06
0.000548677
-1.25775e-05
0.000545597
-2.25286e-05
0.000544349
-2.57204e-05
0.000546499
-3.66716e-05
0.000549083
-3.51e-05
0.000553254
-3.91663e-05
0.000557756
-3.74591e-05
0.000562421
-3.49675e-05
0.000567253
-3.25442e-05
0.000571122
-2.49614e-05
0.000574614
-2.08714e-05
0.000576261
-9.88701e-06
0.000576792
-3.23508e-06
0.000574912
9.95069e-06
0.000571141
1.99555e-05
0.000564393
3.50724e-05
0.000552027
6.68091e-05
4.44862e-05
0.000542336
0.000605209
-0.000217729
-0.000575203
0.00063961
-7.13966e-05
0.000676895
1.54697e-05
0.000717197
8.32641e-05
0.000759796
0.000135894
0.000805519
0.000188573
0.000855274
0.0002391
0.000908412
0.000287481
0.000962915
0.00033903
0.00101157
0.000371621
0.00104662
0.000402573
0.00106118
0.000377829
0.00105231
0.000412993
0.00101759
0.000393001
0.000962455
0.000359414
0.00090523
0.000260649
0.000845714
0.000220092
0.000794404
0.000155692
0.000752166
0.000108561
0.000717215
7.96808e-05
0.000693841
3.47737e-05
0.000675437
2.10402e-05
0.000663523
-6.63684e-07
0.00065631
-1.53156e-05
0.000651653
-2.10633e-05
0.000651288
-3.63068e-05
0.000651813
-3.56254e-05
0.000654476
-4.18292e-05
0.000657792
-4.07753e-05
0.000661514
-3.86888e-05
0.000665624
-3.66544e-05
0.000668842
-2.818e-05
0.000671816
-2.38446e-05
0.000672885
-1.09568e-05
0.000672833
-3.1827e-06
0.000670179
1.2605e-05
0.000665463
2.46709e-05
0.000657472
4.3064e-05
0.000643296
8.09846e-05
5.58077e-05
0.000631975
0.000599548
-0.000246885
-0.000570392
0.000632789
-0.000104637
0.000668777
-2.05187e-05
0.000707685
4.43558e-05
0.000748746
9.48332e-05
0.000792319
0.000144999
0.00083887
0.000192549
0.000888185
0.000238165
0.000940266
0.000286949
0.000991474
0.000320413
0.00103741
0.00035664
0.00107082
0.000344417
0.00108918
0.000394633
0.00108567
0.000396513
0.00105968
0.000385401
0.00102233
0.000297999
0.000975343
0.000267079
0.000928998
0.000202038
0.000886821
0.000150738
0.000849206
0.000117295
0.000821908
6.20721e-05
0.000799293
4.36546e-05
0.000783391
1.52385e-05
0.000772634
-4.55882e-06
0.000764865
-1.32944e-05
0.000762013
-3.34544e-05
0.000760443
-3.40555e-05
0.000761487
-4.28734e-05
0.000763504
-4.27926e-05
0.000766179
-4.13633e-05
0.000769472
-3.99479e-05
0.000771973
-3.06804e-05
0.000774362
-2.62337e-05
0.000774817
-1.14114e-05
0.00077415
-2.51629e-06
0.000770724
1.60311e-05
0.000765075
3.032e-05
0.000755856
5.22827e-05
0.000739902
9.69394e-05
6.87882e-05
0.000726922
0.000595609
-0.000275475
-0.000567019
0.000628005
-0.000137033
0.00066298
-5.54944e-05
0.00070075
6.58572e-06
0.00074067
5.49136e-05
0.000782989
0.000102681
0.000827907
0.000147631
0.000875031
0.000191042
0.000924747
0.000237233
0.000975104
0.000270056
0.00102423
0.000307513
0.00106645
0.000302201
0.00110089
0.000360192
0.00112013
0.000377269
0.00112016
0.000385374
0.00110495
0.000313209
0.00107612
0.000295909
0.00104147
0.000236692
0.00100562
0.000186583
0.00097061
0.000152306
0.000943165
8.95171e-05
0.000919287
6.75326e-05
0.00090151
3.30148e-05
0.000888739
8.21218e-06
0.000879009
-3.56429e-06
0.000874402
-2.88468e-05
0.000871292
-3.09461e-05
0.000871074
-4.26554e-05
0.000872064
-4.37825e-05
0.000873906
-4.3205e-05
0.000876546
-4.25881e-05
0.000878486
-3.26207e-05
0.000880423
-2.817e-05
0.000880411
-1.14e-05
0.000879267
-1.37184e-06
0.000875223
2.00752e-05
0.000868794
3.6749e-05
0.000858521
6.25549e-05
0.000840993
0.000114468
8.33403e-05
0.000826441
0.000593062
-0.000303738
-0.000564799
0.000624891
-0.000168862
0.000659135
-8.97383e-05
0.000696011
-3.02905e-05
0.000734995
1.59305e-05
0.000776359
6.13163e-05
0.000820275
0.000103715
0.00086625
0.000145067
0.000914608
0.000188875
0.000963931
0.000220734
0.00101359
0.000257852
0.00105942
0.000256377
0.00110216
0.000317451
0.00113571
0.00034372
0.00115524
0.000365837
0.00115973
0.000308721
0.00114993
0.000305709
0.00113024
0.000256384
0.0011049
0.00021192
0.00107663
0.00018058
0.0010524
0.000113744
0.00103007
8.98672e-05
0.00101263
5.04502e-05
0.000999634
2.12116e-05
0.000989454
6.6155e-06
0.00098423
-2.36224e-05
0.000980547
-2.7264e-05
0.00097981
-4.19178e-05
0.000980385
-4.43575e-05
0.000981904
-4.47239e-05
0.000984313
-4.49973e-05
0.000986082
-3.43895e-05
0.000987896
-2.99848e-05
0.000987751
-1.12546e-05
0.000986433
-5.35588e-08
0.000982087
2.44208e-05
0.000975181
4.36553e-05
0.000964178
7.35582e-05
0.000945454
0.000133191
9.92379e-05
0.000929557
0.00059165
-0.000331876
-0.000563512
0.000623155
-0.000200367
0.00065693
-0.000123513
0.000693173
-6.65329e-05
0.000731434
-2.23308e-05
0.000772019
2.07307e-05
0.00081515
6.05844e-05
0.000860383
9.98333e-05
0.000908002
0.000141255
0.000956757
0.00017198
0.00100648
0.000208127
0.00105392
0.000208938
0.00110084
0.000270534
0.00114276
0.0003018
0.00117553
0.000333067
0.00119548
0.000288765
0.00120274
0.000298453
0.00119853
0.000260592
0.00118581
0.000224644
0.00116702
0.000199369
0.00114859
0.000132167
0.00113
0.000108461
0.00111465
6.57969e-05
0.00110285
3.3013e-05
0.00109349
1.59787e-05
0.00108872
-1.88497e-05
0.00108545
-2.39978e-05
0.00108503
-4.14956e-05
0.00108592
-4.52541e-05
0.00108777
-4.65722e-05
0.00109052
-4.77416e-05
0.00109264
-3.65151e-05
0.0010948
-3.21426e-05
0.00109498
-1.14338e-05
0.00109391
1.01562e-06
0.0010897
2.86337e-05
0.00108273
5.06185e-05
0.00107144
8.48545e-05
0.00105203
0.000152598
0.000116127
0.00103514
0.000591168
-0.000360059
-0.000562985
0.000622557
-0.000231756
0.000656098
-0.000157054
0.000691959
-0.000102394
0.000729738
-6.01098e-05
0.000769745
-1.92765e-05
0.000812243
1.80868e-05
0.000856886
5.51904e-05
0.000903993
9.41474e-05
0.000952452
0.000123521
0.00100227
0.000158309
0.0010507
0.000160508
0.00109997
0.000221264
0.00114686
0.000254914
0.00118826
0.000291662
0.00121956
0.000257464
0.00124076
0.000277257
0.00125082
0.000250533
0.00125119
0.000224269
0.00124349
0.000207077
0.00123284
0.000142807
0.00121983
0.000121477
0.00120803
7.75992e-05
0.0011985
4.25389e-05
0.00119079
2.36843e-05
0.00118716
-1.52202e-05
0.00118498
-2.18142e-05
0.0011855
-4.20184e-05
0.00118733
-4.70809e-05
0.00119009
-4.93274e-05
0.0011937
-5.13531e-05
0.0011967
-3.95139e-05
0.00119967
-3.51168e-05
0.00120065
-1.24137e-05
0.00120028
1.38301e-06
0.00119667
3.22444e-05
0.00119012
5.71721e-05
0.00117902
9.59515e-05
0.00115951
0.000172108
0.000133571
0.00114207
0.000591454
-0.000388436
-0.000563077
0.000622904
-0.000263206
0.000656413
-0.000190563
0.000692123
-0.000138104
0.000729658
-9.7645e-05
0.000769316
-5.89338e-05
0.000811371
-2.39683e-05
0.000855559
1.10018e-05
0.000902253
4.7454e-05
0.000950497
7.52764e-05
0.00100041
0.000108395
0.00104958
0.000111336
0.0011004
0.000170447
0.00115046
0.000204852
0.00119758
0.00024454
0.00123702
0.00021803
0.00126904
0.000245233
0.00129132
0.000228255
0.0013041
0.000211487
0.00130801
0.000203169
0.00130652
0.0001443
0.00130068
0.000127308
0.00129388
8.4401e-05
0.00128774
4.86828e-05
0.00128245
2.89713e-05
0.00128046
-1.32276e-05
0.00127972
-2.10705e-05
0.00128149
-4.37939e-05
0.00128457
-5.01554e-05
0.00128857
-5.33333e-05
0.00129341
-5.61879e-05
0.00129765
-4.37593e-05
0.00130181
-3.92724e-05
0.00130397
-1.4576e-05
0.00130468
6.67526e-07
0.00130209
3.48431e-05
0.00129637
6.28913e-05
0.00128593
0.000106386
0.00126688
0.000191162
0.000151119
0.00124933
0.000592376
-0.000417135
-0.000563677
0.000624041
-0.000294871
0.000657695
-0.000224217
0.000693455
-0.000173864
0.000730966
-0.000135156
0.000770502
-9.84704e-05
0.000812335
-6.58005e-05
0.000856249
-3.29131e-05
0.000902649
1.05429e-06
0.00095073
2.71959e-05
0.0010007
5.84224e-05
0.00105044
6.16006e-05
0.00110235
0.000118537
0.00115459
0.000152614
0.00120563
0.000193496
0.00125093
0.000172726
0.00129119
0.000204972
0.00132349
0.000195958
0.00134732
0.00018766
0.0013625
0.000187985
0.0013708
0.000135999
0.00137336
0.000124755
0.00137293
8.48262e-05
0.00137142
5.01999e-05
0.00136951
3.08772e-05
0.00136979
-1.35123e-05
0.00137087
-2.2145e-05
0.0013741
-4.70265e-05
0.00137854
-5.45934e-05
0.0013839
-5.86897e-05
0.00139008
-6.2369e-05
0.00139573
-4.94168e-05
0.00140127
-4.48035e-05
0.00140484
-1.81476e-05
0.00140688
-1.37499e-06
0.00140557
3.61489e-05
0.001401
6.74644e-05
0.00139159
0.000115798
0.00137345
0.000209297
0.00016837
0.0013562
0.00059383
-0.000446271
-0.000564694
0.000625846
-0.000326887
0.000659798
-0.00025817
0.000695784
-0.000209849
0.000733464
-0.000172836
0.000773093
-0.000138099
0.000814923
-0.000107631
0.000858773
-7.67629e-05
0.00090505
-4.52227e-05
0.000953069
-2.08233e-05
0.00100311
8.38141e-06
0.00105329
1.14163e-05
0.001106
6.58295e-05
0.00115979
9.88283e-05
0.0012136
0.000139683
0.0012632
0.000123124
0.00130969
0.000158485
0.00135
0.000155643
0.00138327
0.000154398
0.0014088
0.000162448
0.00142688
0.000117919
0.00143848
0.000113159
0.00144552
7.77851e-05
0.00144984
4.58822e-05
0.00145242
2.82979e-05
0.00145585
-1.69407e-05
0.00145935
-2.56448e-05
0.0014644
-5.20836e-05
0.00147038
-6.05741e-05
0.00147715
-6.54541e-05
0.00148467
-6.98939e-05
0.00149173
-5.64753e-05
0.00149866
-5.17283e-05
0.0015037
-2.31878e-05
0.00150716
-4.84033e-06
0.00150728
3.60294e-05
0.00150402
7.07223e-05
0.00149585
0.000123973
0.00147895
0.000226199
0.000185032
0.00146229
0.000595731
-0.000475948
-0.000566053
0.000628219
-0.000359374
0.000662606
-0.000292558
0.000698972
-0.000246215
0.000736995
-0.000210858
0.000776905
-0.000178009
0.00081894
-0.000149666
0.000862936
-0.000120758
0.000909289
-9.15756e-05
0.000957402
-6.89363e-05
0.00100759
-4.18106e-05
0.0010582
-3.91918e-05
0.00111154
1.24923e-05
0.00116647
4.39007e-05
0.00122228
8.38701e-05
0.00127508
7.03242e-05
0.00132628
0.000107288
0.00137292
0.000109004
0.00141401
0.000113305
0.00144866
0.000127796
0.00147599
9.05911e-05
0.00149674
9.24094e-05
0.00151192
6.26065e-05
0.00152306
3.47405e-05
0.0015312
2.01568e-05
0.00153875
-2.4494e-05
0.00154548
-3.23726e-05
0.00155295
-5.95499e-05
0.00156085
-6.84788e-05
0.00156923
-7.38336e-05
0.00157817
-7.88355e-05
0.00158661
-6.49143e-05
0.00159487
-5.99832e-05
0.00160131
-2.96287e-05
0.00160616
-9.69218e-06
0.00160771
3.44824e-05
0.00160581
7.26236e-05
0.00159895
0.000130833
0.00158343
0.000241719
0.000200941
0.00156752
0.000598012
-0.000506264
-0.000567696
0.000631082
-0.000392445
0.000666028
-0.000327504
0.000702914
-0.000283101
0.000741431
-0.000249375
0.000781793
-0.000218372
0.00082422
-0.000192093
0.00086856
-0.000165098
0.000915192
-0.000138207
0.000963581
-0.000117326
0.00101406
-9.22929e-05
0.00106515
-9.02821e-05
0.00111907
-4.14283e-05
0.00117492
-1.19451e-05
0.00123224
2.65502e-05
0.00128748
1.50879e-05
0.00134226
5.25032e-05
0.00139386
5.74085e-05
0.00144133
6.58343e-05
0.00148376
8.53669e-05
0.00151947
5.48814e-05
0.00154901
6.28631e-05
0.00157254
3.90772e-05
0.00159115
1.61295e-05
0.00160575
5.56034e-06
0.00161838
-3.7128e-05
0.00162923
-4.32178e-05
0.00163984
-7.01625e-05
0.00165023
-7.88715e-05
0.00166062
-8.42208e-05
0.00167122
-8.94325e-05
0.00168115
-7.48427e-05
0.00169074
-6.95751e-05
0.00169851
-3.74025e-05
0.00170465
-1.58334e-05
0.00170753
3.16014e-05
0.00170693
7.32285e-05
0.00170135
0.00013641
0.00168723
0.000255837
0.000216054
0.00167212
0.00060062
-0.000537309
-0.000569575
0.000634376
-0.0004262
0.000669993
-0.000363121
0.000707525
-0.000320632
0.000746675
-0.000288526
0.000787642
-0.000259339
0.00083063
-0.000235081
0.000875497
-0.000209965
0.0009226
-0.00018531
0.000971454
-0.00016618
0.0010224
-0.000143234
0.00107408
-0.00014197
0.00112863
-9.59798e-05
0.00118532
-6.86288e-05
0.00124387
-3.1997e-05
0.00130104
-4.20883e-05
0.00135862
-5.07423e-06
0.00141412
1.90685e-06
0.00146674
1.32156e-05
0.00151566
3.64447e-05
0.00155873
1.18129e-05
0.00159639
2.52054e-05
0.00162807
7.39463e-06
0.00165441
-1.02094e-05
0.00167606
-1.60936e-05
0.00169458
-5.56421e-05
0.00171039
-5.90336e-05
0.00172495
-8.4717e-05
0.00173851
-9.24324e-05
0.00175144
-9.7154e-05
0.00176409
-0.000102079
0.00177577
-8.65219e-05
0.00178684
-8.06463e-05
0.00179598
-4.65479e-05
0.00180337
-2.3221e-05
0.00180749
2.7487e-05
0.00180806
7.26509e-05
0.00180367
0.000140809
0.00179087
0.000268629
0.000230416
0.00177651
0.000603514
-0.000569171
-0.000571652
0.000638052
-0.000460739
0.000674448
-0.000399517
0.000712742
-0.000358926
0.000752653
-0.000328437
0.000794365
-0.000301051
0.000838068
-0.000278784
0.000883628
-0.000255524
0.000931382
-0.000233064
0.000980884
-0.000215681
0.00103246
-0.000194811
0.00108489
-0.000194401
0.00114018
-0.00015127
0.00119773
-0.000126173
0.00125738
-9.16534e-05
0.00131621
-0.000100915
0.00137605
-6.4917e-05
0.0014347
-5.6737e-05
0.00149149
-4.35786e-05
0.00154578
-1.78465e-05
0.00159518
-3.75846e-05
0.00164009
-1.97036e-05
0.00167943
-3.19428e-05
0.0017134
-4.4182e-05
0.00174238
-4.50752e-05
0.00176733
-8.05937e-05
0.00178883
-8.05302e-05
0.00180808
-0.000103967
0.00182552
-0.000109874
0.00184162
-0.000113255
0.00185682
-0.00011728
0.00187064
-0.000100339
0.00188346
-9.34679e-05
0.00189414
-5.72293e-05
0.00190284
-3.19222e-05
0.00190817
2.21596e-05
0.00190985
7.09751e-05
0.0019065
0.000144155
0.0018949
0.000280226
0.000244129
0.00188119
0.000606661
-0.000601935
-0.000573898
0.000642076
-0.000496154
0.000679351
-0.000436792
0.000718518
-0.000398093
0.00075931
-0.000369228
0.000801897
-0.000343638
0.000846457
-0.000323345
0.000892864
-0.000301931
0.000941436
-0.000281636
0.000991757
-0.000266003
0.00104415
-0.000247199
0.00109748
-0.000247732
0.00115365
-0.000207439
0.00121214
-0.000184667
0.0012729
-0.000152414
0.00133324
-0.000161259
0.00139504
-0.00012671
0.00145631
-0.000118007
0.00151655
-0.000103826
0.0015753
-7.65948e-05
0.0016301
-9.23786e-05
0.00168136
-7.0971e-05
0.00172768
-7.82648e-05
0.00176893
-8.54256e-05
0.0018052
-8.13481e-05
0.00183688
-0.000112268
0.00186455
-0.000108207
0.00188913
-0.000128539
0.00191111
-0.000131862
0.00193102
-0.000133158
0.00194933
-0.000135597
0.00196576
-0.000116765
0.0019807
-0.000108409
0.00199319
-6.97176e-05
0.00200338
-4.21123e-05
0.00201
1.55353e-05
0.00201278
6.82008e-05
0.00201041
0.000146526
0.00199987
0.000290763
0.000257315
0.00198669
0.00061004
-0.000635683
-0.000576292
0.000646422
-0.000532536
0.000684674
-0.000475044
0.000724821
-0.00043824
0.000766607
-0.000411013
0.000810192
-0.000387224
0.000855743
-0.000368896
0.000903141
-0.00034933
0.000952686
-0.00033118
0.00100399
-0.000317308
0.00105736
-0.000300566
0.00111175
-0.000302123
0.00116895
-0.000264641
0.00122852
-0.000244234
0.00129045
-0.000214344
0.00135228
-0.000223091
0.00141587
-0.000190296
0.00147944
-0.000181584
0.00154265
-0.000167028
0.00160516
-0.00013911
0.00166458
-0.000151793
0.00172137
-0.00012777
0.00177396
-0.000130846
0.00182195
-0.000133417
0.00186524
-0.000124643
0.00190367
-0.000150702
0.0019378
-0.000142337
0.00196816
-0.000158892
0.00199525
-0.000158952
0.00201954
-0.000157453
0.00204154
-0.000157594
0.00206108
-0.000136308
0.00207857
-0.000125898
0.00209321
-8.43603e-05
0.00210515
-5.40515e-05
0.00211325
7.43892e-06
0.00211721
6.42364e-05
0.00211583
0.000147915
0.00210627
0.000300317
0.000270084
0.0020935
0.000613632
-0.000670499
-0.000578816
0.000651073
-0.000569976
0.000690398
-0.00051437
0.000731628
-0.00047947
0.000774518
-0.000453903
0.00081922
-0.000431926
0.000865891
-0.000415566
0.000914417
-0.000397856
0.000965082
-0.000381845
0.00101752
-0.00036975
0.00107203
-0.000355074
0.00112764
-0.00035773
0.00118603
-0.000323034
0.00124682
-0.000305019
0.00131003
-0.000277552
0.00137339
-0.000286456
0.00143872
-0.000255627
0.00150444
-0.000247297
0.00157028
-0.000232868
0.00163607
-0.000204902
0.0016995
-0.000215227
0.00176113
-0.000189399
0.00181928
-0.000188999
0.00187344
-0.000187572
0.00192334
-0.000174545
0.00196837
-0.000195735
0.00200902
-0.00018298
0.00204542
-0.000195294
0.00207802
-0.000191555
0.0021072
-0.00018663
0.00213339
-0.000183789
0.00215656
-0.000159468
0.00217705
-0.000146389
0.00219423
-0.000101549
0.00220824
-6.80584e-05
0.00221805
-2.3735e-06
0.00222338
5.89146e-05
0.00222306
0.000148232
0.00221449
0.00030889
0.000282493
0.00220208
0.000617429
-0.000706467
-0.000581461
0.000656016
-0.000608564
0.000696511
-0.000554865
0.000738927
-0.000521885
0.00078303
-0.000498006
0.000828965
-0.000477861
0.000876878
-0.00046348
0.000926665
-0.000447643
0.000978592
-0.000433772
0.00103232
-0.000423478
0.00108813
-0.000410879
0.0011451
-0.00041471
0.00120485
-0.000382779
0.001267
-0.000367174
0.00133162
-0.000342171
0.00139661
-0.000351441
0.00146371
-0.000322729
0.0015315
-0.000315083
0.0015998
-0.000301168
0.00166854
-0.00027365
0.00173556
-0.000282243
0.00180146
-0.000255303
0.00186459
-0.000252126
0.00192434
-0.000247325
0.00198038
-0.000230578
0.00203172
-0.000247082
0.00207878
-0.000230033
0.00212133
-0.000237843
0.0021597
-0.000229929
0.00219413
-0.000221064
0.00222497
-0.000214621
0.0022522
-0.000186704
0.00227614
-0.000170325
0.00229628
-0.000121688
0.0023127
-8.44827e-05
0.00232452
-1.41906e-05
0.00233142
5.20144e-05
0.00233232
0.000147328
0.0023248
0.00031641
0.000294533
0.00231276
0.000621422
-0.000743671
-0.000584218
0.000661249
-0.00064839
0.000703009
-0.000596625
0.000746712
-0.000565588
0.000792136
-0.00054343
0.000839418
-0.000525143
0.000888697
-0.000512759
0.000939874
-0.00049882
0.000993202
-0.0004871
0.00104836
-0.000478638
0.00110562
-0.000468132
0.00116412
-0.000473213
0.00122537
-0.000444033
0.00128906
-0.000430857
0.00135523
-0.000408348
0.00142195
-0.00041816
0.0014909
-0.000391676
0.00156077
-0.000384951
0.00163145
-0.000371851
0.00170297
-0.000345165
0.00177327
-0.000352549
0.00184304
-0.000325071
0.00191066
-0.000319746
0.00197551
-0.000312174
0.0020372
-0.000292269
0.00209451
-0.000304395
0.00214776
-0.00028328
0.00219642
-0.000286503
0.00224068
-0.000274194
0.00228062
-0.000261003
0.00231643
-0.000250431
0.00234813
-0.000218405
0.00237592
-0.00019811
0.0023994
-0.000145168
0.0024186
-0.000103681
0.00243273
-2.83227e-05
0.00244146
4.32808e-05
0.00244378
0.000145006
0.00243744
0.00032275
0.000306139
0.00242584
0.000625611
-0.000782199
-0.000587084
0.000666768
-0.000689547
0.00070989
-0.000639748
0.000754984
-0.000610681
0.000801837
-0.000590284
0.000850581
-0.000573887
0.000901347
-0.000563525
0.000954044
-0.000551516
0.00100891
-0.000541965
0.00106564
-0.000535373
0.0011245
-0.000526985
0.00118467
-0.000533392
0.0012476
-0.000506957
0.00131297
-0.000496226
0.00138086
-0.000476237
0.00144945
-0.000486749
0.00152034
-0.000462575
0.00159236
-0.000456962
0.00166542
-0.000444914
0.00173961
-0.000419359
0.00181303
-0.000425965
0.00188638
-0.000398419
0.00195813
-0.000391494
0.00202766
-0.000381707
0.00209458
-0.00035919
0.0021575
-0.000367315
0.00221667
-0.00034245
0.00227131
-0.000341141
0.00232147
-0.000324353
0.00236705
-0.000306581
0.00240807
-0.00029146
0.00244455
-0.000254881
0.00247653
-0.000230094
0.00250371
-0.000172347
0.00252603
-0.000125997
0.00254279
-4.50833e-05
0.00255363
3.24433e-05
0.00255759
0.000141044
0.00255259
0.000327748
0.000317204
0.00254153
0.000629993
-0.000822138
-0.000590054
0.000672575
-0.000732129
0.00071716
-0.000684332
0.000763748
-0.000657269
0.000812141
-0.000638677
0.000862463
-0.000624209
0.000914839
-0.000615901
0.000969183
-0.00060586
0.00102572
-0.000598503
0.00108417
-0.000593825
0.00114477
-0.000587585
0.00120678
-0.000595398
0.00127153
-0.000571707
0.00133875
-0.000563445
0.00140851
-0.000546
0.00147912
-0.000557354
0.0015521
-0.000535555
0.00162635
-0.000531212
0.00170184
-0.000520409
0.0017787
-0.000496216
0.00185514
-0.000502405
0.00193189
-0.000475172
0.00200751
-0.000467115
0.00208141
-0.000455605
0.0021532
-0.000430983
0.0022214
-0.000435512
0.0022862
-0.000407254
0.00234663
-0.000401569
0.00240261
-0.000380329
0.00245387
-0.000357837
0.00250026
-0.000337855
0.00254174
-0.000296359
0.00257821
-0.000266563
0.0026094
-0.000203535
0.00263515
-0.000151746
0.00265484
-6.47724e-05
0.00266805
1.92315e-05
0.00267388
0.000135212
0.00267041
0.00033122
0.000327592
0.00266002
0.00063457
-0.00086358
-0.000593128
0.000678674
-0.000776232
0.000724822
-0.00073048
0.000773013
-0.00070546
0.000823058
-0.000688722
0.000875075
-0.000676226
0.000929185
-0.00067001
0.000985306
-0.000661982
0.00104366
-0.000656852
0.00110397
-0.000654137
0.00116647
-0.000650083
0.00123045
-0.000659383
0.00129719
-0.000638446
0.00136642
-0.000632676
0.00143822
-0.000617803
0.001511
-0.000630131
0.00158621
-0.000610764
0.00166282
-0.000607825
0.00174084
-0.000598424
0.0018204
-0.000575777
0.00189984
-0.00058185
0.00197991
-0.000555238
0.00205924
-0.000546444
0.00213727
-0.000533641
0.00221366
-0.000507367
0.00228685
-0.000508702
0.00235701
-0.000477421
0.00242303
-0.000467581
0.00248469
-0.000441998
0.0025416
-0.000414744
0.00259343
-0.000389688
0.00264007
-0.000342991
0.00268124
-0.000307736
0.0027167
-0.00023899
0.00274616
-0.000181208
0.00276905
-8.76647e-05
0.00278489
3.38688e-06
0.00279283
0.000127279
0.00279107
0.000332978
0.000337155
0.00278151
0.000639342
-0.00090662
-0.000596302