/*--------------------------------*- C++ -*----------------------------------*\
| =========                 |                                                 |
| \\      /  F ield         | OpenFOAM: The Open Source CFD Toolbox           |
|  \\    /   O peration     | Version:  5.x                                   |
|   \\  /    A nd           | Web:      www.OpenFOAM.org                      |
|    \\/     M anipulation  |                                                 |
\*---------------------------------------------------------------------------*/
FoamFile
{
    version     2.0;
    format      ascii;
    class       volVectorField;
    location    "500";
    object      U;
}
// * * * * * * * * * * * * * * * * * * * * * * * * * * * * * * * * * * * * * //

dimensions      [0 1 -1 0 0 0 0];

internalField   nonuniform List<vector> 
26000
(
(0.349946 1.89305e-19 3.05436)
(0.69966 -1.91188e-19 2.16193)
(0.787142 -3.83345e-21 1.09066)
(0.671757 2.43623e-19 0.346977)
(0.399967 2.89242e-19 -0.0233612)
(0.165343 6.33856e-20 -0.215678)
(0.0641666 0 -0.306871)
(0.00048108 0 -0.328054)
(-0.0274113 4.46455e-19 -0.314724)
(-0.0273577 -1.0903e-18 -0.284582)
(-0.00968274 2.11592e-18 -0.257867)
(0.0168253 -1.39738e-18 -0.234004)
(0.0452188 1.19014e-18 -0.214919)
(0.0688801 2.29619e-18 -0.210178)
(0.0914523 -2.74152e-18 -0.190797)
(0.0988158 8.20227e-19 -0.178957)
(0.101702 4.49122e-18 -0.17231)
(0.105086 -9.62241e-18 -0.163444)
(0.101685 6.16309e-18 -0.156668)
(0.0990629 6.58612e-18 -0.151178)
(0.0987891 9.54217e-18 -0.146208)
(0.0998769 4.93298e-18 -0.141791)
(0.103843 5.22005e-18 -0.136276)
(0.10615 -2.12933e-17 -0.130869)
(0.110577 5.4554e-18 -0.124636)
(0.111833 -1.71918e-17 -0.118481)
(0.110959 -1.11843e-17 -0.109962)
(0.110789 0 -0.10075)
(0.10804 -1.52823e-17 -0.0918309)
(0.100806 5.01194e-18 -0.0841885)
(0.0912819 4.14756e-17 -0.0776482)
(0.0806623 0 -0.0715759)
(0.0700429 0 -0.0660471)
(0.0591131 -5.52641e-18 -0.0600511)
(0.0493678 4.54169e-17 -0.0540967)
(0.038769 -4.04231e-17 -0.0468436)
(0.0248599 5.20708e-17 -0.0387397)
(0.0135314 4.83483e-17 -0.0315513)
(-0.00840359 -1.46126e-18 -0.0191683)
(-0.014849 1.85734e-18 -0.0168908)
(1.0978 -4.76563e-19 2.42358)
(1.37708 -1.42428e-19 2.58521)
(1.51782 0 2.34236)
(1.54179 -5.9806e-20 1.80595)
(1.42284 -4.02747e-20 1.18731)
(1.18901 0 0.670766)
(0.942955 -3.34215e-20 0.33935)
(0.72623 8.96107e-20 0.155002)
(0.556858 0 0.0610309)
(0.447107 1.71613e-19 0.026161)
(0.389208 -5.13116e-20 0.0153298)
(0.368822 -3.78929e-19 0.0113847)
(0.367181 3.90239e-19 0.0141895)
(0.376048 3.50253e-19 -0.0010435)
(0.391943 -1.21749e-19 -0.00793432)
(0.39815 1.13209e-18 -0.0125108)
(0.39633 -1.41804e-18 -0.0180991)
(0.392656 1.24052e-18 -0.0251719)
(0.385759 -1.90027e-18 -0.0307462)
(0.376479 -1.32565e-18 -0.0358856)
(0.368589 -1.42164e-18 -0.0416814)
(0.360505 0 -0.0470905)
(0.352241 2.86838e-18 -0.0531223)
(0.344565 2.90352e-18 -0.0580521)
(0.337106 -1.38951e-18 -0.0622803)
(0.330016 0 -0.0660259)
(0.321095 2.48533e-20 -0.0673477)
(0.311591 0 -0.0677266)
(0.301617 1.43919e-18 -0.0670879)
(0.291427 4.25518e-18 -0.0662124)
(0.281655 -5.82224e-18 -0.0655326)
(0.271643 -5.81527e-18 -0.064917)
(0.261711 0 -0.0647843)
(0.25117 0 -0.0641791)
(0.240605 -5.96134e-18 -0.063511)
(0.228881 1.18311e-17 -0.0615502)
(0.214798 0 -0.0586694)
(0.202371 -2.01458e-20 -0.0563666)
(0.180704 -3.55454e-19 -0.0495641)
(0.171027 4.40152e-19 -0.0516506)
(1.01861 5.96895e-19 1.93387)
(1.28889 2.03749e-19 2.18389)
(1.55032 2.06619e-19 2.36152)
(1.76785 0 2.29825)
(1.8874 0 1.99202)
(1.86859 9.48565e-20 1.53205)
(1.72815 1.39199e-20 1.04367)
(1.50415 2.75752e-21 0.62731)
(1.25562 -3.09435e-20 0.335229)
(1.03485 -1.7517e-19 0.165438)
(0.870127 -3.03018e-20 0.0817929)
(0.767589 -1.4661e-19 0.042939)
(0.702064 4.01384e-19 0.0325192)
(0.664382 -9.89603e-19 0.0127666)
(0.646315 5.19322e-19 0.000412487)
(0.633335 -6.44402e-20 -0.00993365)
(0.620285 -5.96137e-19 -0.0175128)
(0.606892 4.74686e-20 -0.0267309)
(0.59414 4.84431e-19 -0.034757)
(0.581673 1.05952e-18 -0.0422682)
(0.571177 -7.36924e-19 -0.0506533)
(0.560567 0 -0.0575891)
(0.549155 -1.58793e-18 -0.0652065)
(0.538039 2.44035e-18 -0.0716841)
(0.526017 -1.58509e-18 -0.0771589)
(0.514353 2.46099e-20 -0.0824985)
(0.501075 -1.63361e-18 -0.0858102)
(0.487103 3.33772e-18 -0.0886541)
(0.473184 1.67193e-18 -0.0901653)
(0.459585 -1.71596e-18 -0.0911802)
(0.446706 0 -0.0921764)
(0.433427 3.38568e-18 -0.0928607)
(0.420105 -8.54621e-19 -0.0939485)
(0.405994 8.23897e-19 -0.0943323)
(0.391447 3.30791e-18 -0.0946065)
(0.376518 -6.50146e-18 -0.0936415)
(0.361032 6.56153e-18 -0.0921441)
(0.347393 -6.56049e-18 -0.0909571)
(0.326112 6.1248e-18 -0.0858344)
(0.312842 0 -0.0887158)
(1.02412 -5.56234e-19 1.70249)
(1.18708 3.94413e-20 1.83861)
(1.38892 -3.88354e-19 2.02382)
(1.63018 1.39859e-19 2.16925)
(1.87136 -1.47857e-19 2.17585)
(2.05076 -4.0951e-20 1.99446)
(2.12224 -2.99954e-20 1.6569)
(2.06487 5.93101e-20 1.23645)
(1.89956 4.2496e-20 0.82897)
(1.675 8.48872e-20 0.504058)
(1.44653 -4.9758e-20 0.286263)
(1.26167 9.49171e-20 0.160146)
(1.11358 2.35462e-19 0.0985427)
(1.00619 -2.46426e-19 0.0546908)
(0.935857 -3.17571e-19 0.027542)
(0.892147 3.85493e-19 0.00724263)
(0.860596 3.96845e-19 -0.00720895)
(0.834661 -4.49077e-19 -0.0216868)
(0.813517 1.41711e-19 -0.0339391)
(0.794476 -3.61484e-19 -0.0452425)
(0.778304 -5.25961e-19 -0.0569628)
(0.762688 9.98439e-19 -0.066763)
(0.746545 -5.36862e-19 -0.0770835)
(0.730595 5.17476e-19 -0.0861558)
(0.713649 0 -0.0939473)
(0.697099 1.10091e-18 -0.101315)
(0.680357 -1.09549e-18 -0.106701)
(0.663695 7.30444e-21 -0.111576)
(0.647174 -2.26713e-18 -0.115056)
(0.630337 -1.25186e-20 -0.117766)
(0.61364 1.14641e-18 -0.120037)
(0.596132 5.80284e-19 -0.121658)
(0.578361 -5.77343e-19 -0.123455)
(0.559497 -5.77289e-19 -0.124413)
(0.540001 -1.15183e-18 -0.125128)
(0.520273 -5.61836e-18 -0.124644)
(0.500458 -3.9368e-18 -0.123763)
(0.482453 -4.69597e-18 -0.122958)
(0.458044 4.32453e-18 -0.118665)
(0.441388 4.825e-18 -0.12154)
(1.0662 -1.2499e-20 1.53275)
(1.17654 2.33559e-20 1.62314)
(1.30109 1.3958e-19 1.74475)
(1.46766 -2.71608e-19 1.89245)
(1.68232 8.79474e-20 2.01742)
(1.91826 0 2.04822)
(2.12774 -4.43596e-20 1.94018)
(2.25583 1.55224e-20 1.6866)
(2.2694 -9.73611e-21 1.33774)
(2.17051 -2.78981e-20 0.96813)
(1.99233 0 0.644698)
(1.79496 0 0.408611)
(1.59448 6.74291e-20 0.255203)
(1.42063 1.07916e-19 0.153395)
(1.28761 1.30486e-19 0.0910722)
(1.19912 2.24842e-20 0.0502717)
(1.13666 -1.98963e-19 0.022847)
(1.08907 -3.98455e-19 -0.00103201)
(1.05181 2.77302e-19 -0.0203914)
(1.01892 6.29875e-19 -0.0372863)
(0.991509 -7.125e-19 -0.053321)
(0.966612 5.70111e-19 -0.0667678)
(0.942914 -9.50817e-19 -0.0802979)
(0.92078 0 -0.0923088)
(0.898192 0 -0.102839)
(0.876672 -8.32597e-19 -0.112596)
(0.85548 8.06087e-19 -0.120296)
(0.83466 -7.04308e-21 -0.127345)
(0.814283 -8.40479e-19 -0.132817)
(0.793658 -1.69015e-18 -0.137297)
(0.773436 0 -0.141124)
(0.752708 0 -0.14414)
(0.731831 4.34695e-19 -0.147097)
(0.709735 -4.24622e-19 -0.149123)
(0.686766 0 -0.150839)
(0.662952 3.82816e-18 -0.151367)
(0.638325 -4.21771e-19 -0.151314)
(0.615107 2.29324e-21 -0.150949)
(0.585565 3.15952e-18 -0.147248)
(0.564451 -3.69349e-18 -0.150043)
(1.0955 -1.87149e-20 1.40355)
(1.18277 3.26658e-20 1.47548)
(1.27302 -2.02472e-20 1.55865)
(1.38252 -1.32293e-20 1.66212)
(1.52973 1.44078e-19 1.78185)
(1.72185 -5.94063e-20 1.88506)
(1.94577 6.44997e-20 1.92449)
(2.16264 -1.19426e-19 1.85346)
(2.32269 -1.04832e-19 1.66111)
(2.38759 0 1.37636)
(2.34664 0 1.05317)
(2.23183 -4.71441e-21 0.760217)
(2.05881 -1.45582e-19 0.518817)
(1.8675 2.0777e-19 0.337025)
(1.68942 -2.29113e-19 0.213186)
(1.55337 1.08649e-19 0.133151)
(1.45027 -2.59117e-19 0.0811764)
(1.37087 5.50316e-19 0.0410118)
(1.30968 -5.4224e-19 0.0101954)
(1.25782 -4.99431e-20 -0.0154483)
(1.21596 0 -0.0379657)
(1.17955 7.46255e-19 -0.0565174)
(1.1465 -9.92388e-19 -0.0743074)
(1.11669 -1.93706e-20 -0.0900536)
(1.08728 1.27229e-18 -0.104037)
(1.05983 -6.48261e-19 -0.116878)
(1.03293 0 -0.127464)
(1.00668 1.35163e-18 -0.137077)
(0.981213 6.90379e-19 -0.144843)
(0.955746 6.9186e-19 -0.151324)
(0.931107 -6.76666e-19 -0.156873)
(0.906278 0 -0.161447)
(0.881622 0 -0.16574)
(0.856063 0 -0.169038)
(0.829861 0 -0.171927)
(0.802681 -2.71447e-18 -0.173629)
(0.774255 -2.71987e-18 -0.174651)
(0.74675 2.51731e-18 -0.175168)
(0.712002 -4.71577e-18 -0.172417)
(0.686108 -8.88225e-20 -0.175307)
(1.12317 1.76244e-19 1.30023)
(1.19215 -1.79923e-19 1.36073)
(1.26366 -1.26788e-19 1.4264)
(1.34489 1.27328e-19 1.50013)
(1.44608 -1.21182e-19 1.58753)
(1.57985 1.28923e-19 1.68405)
(1.75527 0 1.76912)
(1.96399 2.18681e-19 1.8043)
(2.17623 8.41879e-20 1.75428)
(2.34919 0 1.60494)
(2.44526 0 1.37051)
(2.45716 7.29509e-20 1.10619)
(2.38342 1.81491e-19 0.836239)
(2.2478 1.16208e-19 0.59653)
(2.07934 -3.67359e-19 0.405903)
(1.92357 2.21513e-19 0.271957)
(1.78915 0 0.180813)
(1.67813 -9.53045e-20 0.113757)
(1.5898 5.32511e-20 0.0643855)
(1.51534 -4.262e-19 0.0249442)
(1.45571 4.6473e-19 -0.00767283)
(1.40463 0 -0.03405)
(1.35923 -6.40282e-20 -0.0579889)
(1.31924 5.32607e-19 -0.0787472)
(1.28111 -5.2304e-19 -0.0971346)
(1.24644 0 -0.113684)
(1.2131 0 -0.127649)
(1.18092 5.68039e-19 -0.140314)
(1.14991 -5.65415e-19 -0.150874)
(1.11924 5.61744e-19 -0.159886)
(1.08968 -5.72612e-19 -0.167625)
(1.06006 -1.14031e-18 -0.174118)
(1.03094 -5.81453e-19 -0.180006)
(1.00123 5.66935e-19 -0.184779)
(0.9712 0 -0.189004)
(0.940391 2.27539e-18 -0.192024)
(0.908319 2.27779e-18 -0.194272)
(0.876996 2.39e-18 -0.195854)
(0.83768 -2.20889e-18 -0.194346)
(0.807512 -2.39308e-18 -0.197623)
(1.14992 1.48656e-19 1.21406)
(1.20548 2.34863e-20 1.26558)
(1.26257 1.10085e-19 1.32151)
(1.32691 0 1.38078)
(1.40309 -6.36016e-20 1.44588)
(1.49801 -1.68884e-19 1.51926)
(1.62276 0 1.59795)
(1.78435 -2.18033e-19 1.66482)
(1.97705 -1.13401e-19 1.69225)
(2.17697 9.02744e-20 1.65213)
(2.34886 -1.83525e-19 1.52899)
(2.46363 1.96658e-19 1.3467)
(2.5049 6.73365e-21 1.11537)
(2.47094 -1.76538e-19 0.872007)
(2.3708 1.00596e-19 0.64409)
(2.24363 1.33601e-19 0.463157)
(2.10984 -2.67145e-19 0.327256)
(1.98473 -2.5062e-19 0.224677)
(1.87688 -2.28524e-20 0.148882)
(1.78211 6.58633e-19 0.0893747)
(1.70437 1.93763e-20 0.0421171)
(1.6375 -8.39521e-19 0.0043884)
(1.57856 4.56525e-19 -0.0283406)
(1.52716 0 -0.0560483)
(1.47915 5.71248e-20 -0.0803541)
(1.43613 -4.80917e-19 -0.101779)
(1.39537 4.69479e-19 -0.120041)
(1.35654 0 -0.136442)
(1.31947 -2.45933e-19 -0.150359)
(1.28318 4.96567e-19 -0.162394)
(1.24841 5.91405e-21 -0.172771)
(1.21383 4.91434e-19 -0.181629)
(1.1801 9.90738e-19 -0.189542)
(1.14594 4.91473e-19 -0.196171)
(1.11171 -1.50352e-18 -0.202022)
(1.07691 1.47369e-18 -0.206586)
(1.04097 0 -0.210265)
(1.00586 -2.06567e-18 -0.213109)
(0.962267 1.85646e-18 -0.213089)
(0.928297 2.12552e-18 -0.216948)
(1.17479 -2.63297e-19 1.13979)
(1.22114 7.92092e-20 1.18399)
(1.26752 2.97079e-20 1.23244)
(1.31935 1.12072e-19 1.28358)
(1.37994 5.25735e-20 1.33717)
(1.45237 2.14787e-19 1.39433)
(1.54336 -2.13938e-19 1.4566)
(1.66096 1.53939e-19 1.51967)
(1.8104 9.57679e-20 1.57077)
(1.98625 -1.08297e-19 1.58824)
(2.1693 8.95625e-20 1.54896)
(2.33102 -2.73444e-19 1.4525)
(2.45248 2.77143e-19 1.29382)
(2.51603 -9.28568e-20 1.09427)
(2.50944 1.87422e-19 0.873895)
(2.44916 -2.17446e-19 0.674441)
(2.35419 0 0.50591)
(2.24501 2.81189e-19 0.369531)
(2.13751 -2.92168e-19 0.264188)
(2.03471 4.1498e-19 0.18021)
(1.94555 -7.11756e-19 0.114246)
(1.86641 -1.08227e-19 0.0615772)
(1.79575 4.49877e-19 0.0171077)
(1.73366 4.9682e-20 -0.0198989)
(1.67593 -4.76228e-20 -0.0519801)
(1.62444 2.61299e-20 -0.0796859)
(1.57611 -4.26403e-19 -0.103382)
(1.53053 4.23735e-19 -0.12442)
(1.48732 2.20609e-19 -0.142454)
(1.44532 -4.30149e-19 -0.158177)
(1.40527 8.82691e-19 -0.171753)
(1.3657 -8.71502e-19 -0.183477)
(1.32734 -1.33249e-18 -0.193855)
(1.28882 8.70953e-19 -0.202747)
(1.25046 4.40018e-19 -0.210598)
(1.21165 -1.65296e-22 -0.217042)
(1.17181 -1.74343e-18 -0.222434)
(1.13293 1.71898e-18 -0.226796)
(1.08522 3.19001e-18 -0.228545)
(1.04775 3.55839e-21 -0.233189)
(1.19741 -1.04132e-21 1.07445)
(1.23724 0 1.11265)
(1.27608 0 1.15471)
(1.3186 -1.002e-19 1.19956)
(1.36786 0 1.24636)
(1.42589 -4.79259e-20 1.29463)
(1.49639 1.45109e-19 1.34527)
(1.58434 0 1.39762)
(1.69582 -1.02205e-19 1.44778)
(1.83373 1.86367e-19 1.48446)
(1.9926 -1.93589e-19 1.49012)
(2.15459 1.0297e-19 1.45451)
(2.30683 -8.22701e-20 1.36558)
(2.4306 0 1.22853)
(2.50326 0 1.04888)
(2.5181 9.43896e-20 0.863075)
(2.48429 -2.16143e-19 0.685925)
(2.41753 2.32461e-19 0.529441)
(2.33412 -2.70619e-19 0.400037)
(2.24217 2.7595e-19 0.29249)
(2.1547 -3.21084e-19 0.206653)
(2.07225 7.3752e-19 0.137079)
(1.99578 -4.24937e-19 0.0787635)
(1.92684 4.44539e-20 0.0304889)
(1.86203 -2.84399e-21 -0.0110968)
(1.80372 -4.04426e-19 -0.0465207)
(1.74896 7.55514e-19 -0.076885)
(1.69744 9.94075e-21 -0.103563)
(1.64873 9.27764e-21 -0.126527)
(1.6016 2.04255e-19 -0.146629)
(1.55673 -1.18133e-18 -0.164027)
(1.51261 -3.40882e-21 -0.179189)
(1.46999 7.96242e-19 -0.19253)
(1.42742 -7.84497e-19 -0.204125)
(1.38527 8.04273e-19 -0.214366)
(1.34281 6.0377e-21 -0.223047)
(1.2994 1.17874e-18 -0.230486)
(1.257 -1.35046e-18 -0.236671)
(1.20553 -2.95682e-18 -0.240509)
(1.16485 -1.00862e-19 -0.246182)
(1.21789 1.28442e-19 1.01612)
(1.25283 1.71529e-19 1.04937)
(1.28629 -1.72863e-19 1.086)
(1.3221 -1.88572e-19 1.12532)
(1.3629 0 1.16673)
(1.4105 -8.93758e-20 1.20939)
(1.46748 3.75656e-21 1.25326)
(1.53667 0 1.2977)
(1.6221 1.90247e-19 1.34166)
(1.7278 -9.77313e-20 1.38016)
(1.85463 1.06679e-19 1.40343)
(1.99454 1.0066e-19 1.40098)
(2.14223 0 1.3612)
(2.28596 0 1.28042)
(2.40399 0 1.15246)
(2.47651 1.01081e-19 1.00075)
(2.50253 0 0.837764)
(2.48835 1.11279e-19 0.679775)
(2.44468 -3.59424e-19 0.538515)
(2.38039 -1.38672e-19 0.414247)
(2.30899 5.57907e-19 0.311497)
(2.23484 -1.39447e-19 0.225911)
(2.16157 4.77719e-19 0.153617)
(2.09243 -1.53606e-18 0.0933695)
(2.0256 7.3049e-19 0.041367)
(1.96409 8.52374e-20 -0.00274195)
(1.90564 0 -0.0407029)
(1.85026 -2.18972e-20 -0.073857)
(1.79768 8.02731e-19 -0.102493)
(1.74677 -8.80981e-19 -0.127623)
(1.69822 5.4259e-19 -0.149418)
(1.65054 -3.55067e-19 -0.168541)
(1.6045 3.62595e-19 -0.185328)
(1.55867 7.20668e-19 -0.20007)
(1.5134 7.27046e-19 -0.213096)
(1.46793 -7.15159e-19 -0.224368)
(1.42158 1.79589e-19 -0.234183)
(1.37626 -1.74428e-19 -0.242503)
(1.32167 2.61535e-18 -0.24876)
(1.27821 1.47318e-18 -0.255742)
(1.23644 1.04927e-19 0.963443)
(1.26752 -3.60214e-19 0.992604)
(1.29698 3.38213e-19 1.02464)
(1.32792 3.03799e-19 1.05912)
(1.36249 8.51188e-20 1.09569)
(1.40226 -4.27972e-20 1.13371)
(1.44939 -1.71886e-19 1.17296)
(1.50583 0 1.21243)
(1.57409 -3.47093e-19 1.2514)
(1.65709 8.56328e-20 1.28729)
(1.75703 1.06413e-19 1.31529)
(1.87115 1.93366e-19 1.32766)
(1.99899 1.73527e-19 1.31635)
(2.1365 -1.88507e-19 1.27561)
(2.2686 0 1.19393)
(2.3728 -2.65145e-19 1.08188)
(2.44189 3.73494e-19 0.946416)
(2.47411 -2.94612e-19 0.802329)
(2.47269 9.77238e-20 0.662582)
(2.44392 -1.12422e-19 0.53156)
(2.39831 5.08594e-19 0.418067)
(2.34216 -1.18262e-18 0.320075)
(2.2808 6.90936e-19 0.235741)
(2.2188 1.46983e-19 0.164424)
(2.15607 -7.52256e-20 0.102331)
(2.0962 -7.77975e-20 0.0494654)
(2.03798 0 0.00364029)
(1.98187 7.09226e-19 -0.0363804)
(1.92796 -7.1977e-19 -0.0711091)
(1.87539 0 -0.101683)
(1.82491 1.64648e-19 -0.12829)
(1.7752 0 -0.151774)
(1.72706 2.96189e-21 -0.172391)
(1.67915 -3.26998e-19 -0.190638)
(1.63181 -1.00325e-18 -0.206789)
(1.58431 3.25758e-19 -0.220966)
(1.53592 -1.47508e-18 -0.233451)
(1.48853 -1.13073e-18 -0.24419)
(1.43179 -4.72822e-18 -0.253159)
(1.38618 -2.77454e-18 -0.261733)
(1.25329 -1.92204e-19 0.915433)
(1.28124 -2.2988e-20 0.941177)
(1.30757 -1.44908e-19 0.969371)
(1.33485 -1.60123e-19 0.999676)
(1.36482 -3.9329e-20 1.03192)
(1.39873 2.76989e-19 1.06569)
(1.43841 2.36551e-19 1.10091)
(1.48545 0 1.13664)
(1.54166 -5.82421e-21 1.17212)
(1.60902 -1.71111e-19 1.20538)
(1.68936 -1.56181e-19 1.23386)
(1.78188 -1.60126e-19 1.25212)
(1.88802 1.80702e-19 1.25549)
(2.00849 1.83181e-19 1.23948)
(2.13519 -1.81974e-19 1.19234)
(2.24923 0 1.11587)
(2.34167 0 1.01168)
(2.40631 -3.68573e-19 0.890133)
(2.44007 7.71074e-19 0.762216)
(2.44541 -1.98718e-19 0.634073)
(2.42829 -6.84617e-19 0.517026)
(2.39494 2.26675e-19 0.41165)
(2.35102 0 0.318587)
(2.30164 -8.11543e-19 0.238302)
(2.2482 5.42801e-19 0.167513)
(2.19456 0 0.106683)
(2.14056 5.85112e-19 0.0534519)
(2.08714 -6.92881e-19 0.00676855)
(2.03481 0 -0.03401)
(1.98307 0 -0.070085)
(1.9328 0 -0.101636)
(1.88294 0 -0.129649)
(1.83433 -3.11678e-19 -0.154306)
(1.78579 6.06968e-19 -0.176271)
(1.7377 -3.10636e-19 -0.195769)
(1.68937 9.08063e-19 -0.213067)
(1.64007 1.20776e-18 -0.228441)
(1.59164 -2.45748e-21 -0.241817)
(1.53393 2.21952e-18 -0.253712)
(1.48702 1.24187e-18 -0.264136)
(1.26865 8.85303e-20 0.871321)
(1.29401 1.83584e-19 0.894192)
(1.3178 -1.94333e-20 0.919152)
(1.34223 0 0.945919)
(1.3687 7.35967e-20 0.97439)
(1.39821 -3.70285e-19 1.0043)
(1.43224 -1.47329e-19 1.03575)
(1.47211 1.52579e-19 1.06804)
(1.5193 1.51103e-19 1.10054)
(1.57531 1.54913e-19 1.13159)
(1.64151 1.64371e-19 1.15946)
(1.71768 -1.01648e-22 1.18004)
(1.80551 9.42735e-21 1.19079)
(1.90765 2.37694e-20 1.18902)
(2.02072 3.34794e-19 1.16508)
(2.13117 0 1.11634)
(2.23124 -1.81589e-19 1.04095)
(2.3138 -1.63807e-19 0.944591)
(2.37211 3.59821e-19 0.834578)
(2.40514 -9.83212e-22 0.716651)
(2.41418 -2.09869e-19 0.602617)
(2.40382 -2.21068e-19 0.495117)
(2.37907 4.51392e-19 0.397124)
(2.34486 2.38829e-19 0.310465)
(2.30365 0 0.232866)
(2.25926 -2.65787e-19 0.165385)
(2.21246 5.23927e-19 0.105726)
(2.16452 4.80577e-19 0.0530463)
(2.11631 -1.23689e-18 0.00666337)
(2.0677 -4.67989e-20 -0.0346098)
(2.01969 5.55599e-19 -0.0709351)
(1.97154 1.40872e-19 -0.103381)
(1.92412 2.89456e-19 -0.132064)
(1.87648 -1.69919e-18 -0.157773)
(1.82901 1.14017e-18 -0.180687)
(1.78113 -5.61973e-19 -0.201185)
(1.73213 2.82346e-19 -0.219547)
(1.68379 1.93601e-18 -0.235685)
(1.62637 0 -0.250614)
(1.57909 -1.14695e-18 -0.263088)
(1.28272 1.02181e-20 0.830511)
(1.30587 -9.55769e-21 0.850942)
(1.32756 -1.80156e-19 0.873169)
(1.34969 3.51074e-20 0.896939)
(1.37342 6.88832e-20 0.922174)
(1.39955 6.81599e-20 0.948682)
(1.42926 0 0.976665)
(1.46363 -1.40948e-19 1.00565)
(1.50387 1.45861e-19 1.03524)
(1.55125 -1.50593e-19 1.06407)
(1.60685 4.98804e-21 1.09087)
(1.67066 6.43916e-21 1.11226)
(1.74416 6.6677e-22 1.12686)
(1.83037 -3.23007e-19 1.13322)
(1.92838 0 1.12411)
(2.02916 3.29694e-19 1.09531)
(2.12709 -6.87757e-19 1.04347)
(2.21622 1.89395e-19 0.970812)
(2.28869 3.31516e-19 0.880931)
(2.34135 -3.75413e-19 0.777891)
(2.37172 0 0.67217)
(2.38205 -5.93395e-19 0.567406)
(2.37586 6.23746e-19 0.468296)
(2.35722 4.40058e-19 0.378026)
(2.32909 -4.48024e-19 0.295638)
(2.29519 -4.75582e-19 0.222938)
(2.25704 2.45639e-19 0.157962)
(2.21619 -3.68297e-19 0.10015)
(2.17374 -3.85091e-19 0.048851)
(2.12989 5.39079e-19 0.00291078)
(2.0857 0 -0.0378004)
(2.04075 -1.30069e-19 -0.0743775)
(1.99589 5.321e-19 -0.106885)
(1.95045 -5.2236e-19 -0.136184)
(1.90482 -2.63155e-19 -0.162422)
(1.85855 3.89958e-21 -0.186059)
(1.81098 -2.59111e-19 -0.207383)
(1.76377 -2.05849e-18 -0.226293)
(1.70784 1.86924e-18 -0.24424)
(1.66112 -1.00654e-18 -0.258891)
(1.29564 6.7035e-20 0.792531)
(1.31691 8.91565e-21 0.810874)
(1.33683 3.29339e-20 0.83077)
(1.35704 -3.28775e-20 0.851989)
(1.37856 0 0.874463)
(1.40201 0 0.89803)
(1.42837 0 0.922931)
(1.45848 0 0.94884)
(1.49333 -1.32785e-19 0.975552)
(1.53399 2.81146e-19 1.00202)
(1.58138 -2.83316e-19 1.02732)
(1.63561 6.27495e-22 1.04862)
(1.69792 -1.36073e-23 1.06514)
(1.77112 1.57606e-19 1.07619)
(1.85545 3.0362e-19 1.07644)
(1.94493 -1.67049e-19 1.06141)
(2.03591 3.23302e-19 1.02754)
(2.12425 1.71417e-19 0.975038)
(2.20267 4.92555e-19 0.904626)
(2.26727 -3.58111e-19 0.81845)
(2.31328 0 0.724628)
(2.34069 1.77329e-19 0.626736)
(2.3512 1.95681e-19 0.53024)
(2.34745 3.35878e-21 0.439281)
(2.33231 -4.09517e-19 0.354232)
(2.30916 4.32987e-19 0.27779)
(2.28003 2.18821e-19 0.208599)
(2.24677 0 0.146509)
(2.21074 0 0.0909854)
(2.17244 0 0.0409665)
(2.13295 -1.20344e-19 -0.00364319)
(2.09209 0 -0.0439401)
(2.05072 -6.14135e-20 -0.0799576)
(2.00838 0 -0.112582)
(1.96547 -2.50888e-19 -0.141937)
(1.92167 4.84845e-19 -0.16854)
(1.87641 4.882e-19 -0.192688)
(1.83121 9.59397e-19 -0.214277)
(1.77775 -1.80004e-18 -0.23511)
(1.73241 9.82601e-19 -0.251981)
(1.30756 -7.1309e-20 0.757007)
(1.32719 -1.33165e-19 0.773545)
(1.34558 1.26259e-19 0.791436)
(1.36419 0 0.810469)
(1.38387 0 0.830578)
(1.40516 0 0.851619)
(1.42884 -1.24711e-19 0.873832)
(1.4556 1.27475e-19 0.89698)
(1.48623 -1.93247e-22 0.920977)
(1.52162 -1.36627e-19 0.945038)
(1.56254 -1.40438e-19 0.968516)
(1.6092 -1.47894e-19 0.989034)
(1.66261 -4.23729e-19 1.00623)
(1.72531 1.55093e-19 1.01985)
(1.79795 3.03222e-19 1.02594)
(1.87655 1.53962e-19 1.02023)
(1.95885 -1.501e-19 0.999537)
(2.04239 -1.5402e-19 0.963129)
(2.12113 0 0.909899)
(2.19144 4.76802e-19 0.840432)
(2.2476 -3.44053e-19 0.760243)
(2.28793 3.51916e-19 0.672152)
(2.3125 -3.64124e-19 0.581503)
(2.32227 0 0.492789)
(2.31953 0 0.407443)
(2.30702 -9.96868e-19 0.328968)
(2.28694 6.04839e-19 0.256763)
(2.26136 -2.09331e-19 0.191239)
(2.23185 4.26736e-19 0.132131)
(2.19924 7.37256e-21 0.0785711)
(2.16468 -7.70498e-19 0.0305191)
(2.12825 4.41199e-19 -0.0130867)
(2.09078 4.22432e-20 -0.0522602)
(2.052 0 -0.087896)
(2.01232 1.27367e-21 -0.120111)
(1.97152 0 -0.149447)
(1.92911 -2.25163e-19 -0.176212)
(1.88649 6.7791e-19 -0.200315)
(1.8362 -1.06514e-19 -0.223816)
(1.79285 1.04237e-18 -0.242879)
(1.31858 -1.33776e-19 0.723639)
(1.33677 9.36779e-20 0.738604)
(1.35385 2.9902e-20 0.754755)
(1.37107 0 0.771899)
(1.38921 -5.7501e-20 0.789969)
(1.40869 -5.80174e-20 0.808833)
(1.4302 2.33377e-19 0.828719)
(1.45427 -1.2065e-19 0.849437)
(1.48155 -2.44474e-19 0.870967)
(1.51275 2.54044e-19 0.892711)
(1.54855 3.8843e-19 0.914225)
(1.58915 4.01064e-19 0.933534)
(1.63543 -4.13584e-19 0.950548)
(1.68958 2.75442e-19 0.965313)
(1.75244 -5.66763e-19 0.974859)
(1.82129 0 0.975316)
(1.89477 1.78849e-21 0.964022)
(1.97168 -3.12802e-19 0.939934)
(2.04732 -3.05168e-19 0.900972)
(2.1188 -2.06392e-21 0.84671)
(2.18044 0 0.780336)
(2.22962 -6.49677e-19 0.703641)
(2.26517 -1.6029e-20 0.621219)
(2.28657 0 0.537334)
(2.2952 0 0.454056)
(2.29292 3.61219e-19 0.375451)
(2.2818 5.63755e-19 0.301665)
(2.26392 -5.69422e-19 0.233733)
(2.24095 0 0.171759)
(2.21401 -3.98587e-19 0.115176)
(2.18434 8.07736e-19 0.0640847)
(2.15231 -4.05931e-19 0.0175231)
(2.11877 6.54322e-20 -0.0244897)
(2.08364 0 -0.0628405)
(2.04734 2.17945e-19 -0.0976462)
(2.00974 -8.49335e-19 -0.129467)
(1.97043 4.26897e-19 -0.158623)
(1.93066 -1.68431e-18 -0.185042)
(1.88389 0 -0.210951)
(1.84291 6.78176e-21 -0.232119)
(1.32879 1.41074e-19 0.692183)
(1.34572 1.03038e-19 0.705767)
(1.36163 -1.12665e-19 0.720398)
(1.37766 1.64771e-19 0.735895)
(1.39447 -4.29548e-22 0.752194)
(1.41244 1.64446e-19 0.769172)
(1.43213 -2.21814e-19 0.787038)
(1.454 2.14158e-22 0.805634)
(1.47856 1.14859e-19 0.824971)
(1.50642 -2.38692e-19 0.844576)
(1.53811 -1.17944e-19 0.864147)
(1.57384 5.11696e-19 0.882033)
(1.61434 -1.33535e-19 0.898325)
(1.66152 2.62818e-19 0.913278)
(1.71625 2.66041e-19 0.924658)
(1.77662 -2.88901e-19 0.929024)
(1.84186 0 0.924239)
(1.91159 -2.88259e-19 0.909272)
(1.98231 3.04036e-19 0.881643)
(2.05196 2.91077e-19 0.840406)
(2.11545 0 0.786935)
(2.16984 3.01917e-19 0.722027)
(2.21327 -3.20392e-19 0.649231)
(2.24402 3.23515e-19 0.572147)
(2.2626 0 0.493053)
(2.26983 -6.82786e-19 0.416219)
(2.26739 1.03792e-18 0.342426)
(2.25716 -3.56676e-19 0.27329)
(2.24077 0 0.209336)
(2.21952 7.33828e-19 0.150369)
(2.19474 -1.30044e-18 0.0966954)
(2.16701 5.58447e-19 0.0475172)
(2.13728 3.34177e-19 0.00293262)
(2.10568 0 -0.0378863)
(2.07266 -3.99307e-19 -0.0750486)
(2.03821 7.87776e-19 -0.109124)
(2.002 -1.9631e-19 -0.140449)
(1.96514 1.38115e-18 -0.168984)
(1.92195 -9.392e-20 -0.197039)
(1.8835 1.00675e-19 -0.220195)
(1.33829 0 0.662441)
(1.35408 -1.38747e-19 0.674805)
(1.36897 1.33142e-19 0.688096)
(1.38395 -5.21318e-20 0.702147)
(1.3996 5.1898e-20 0.716897)
(1.41627 -1.04041e-19 0.732228)
(1.43443 1.7782e-22 0.748333)
(1.45445 3.2219e-19 0.765074)
(1.47678 2.18799e-19 0.782477)
(1.5019 -1.13633e-19 0.800156)
(1.53026 -2.27464e-19 0.817898)
(1.56205 2.43608e-19 0.834311)
(1.59786 2.43895e-19 0.849595)
(1.63933 -5.06612e-19 0.864141)
(1.68731 2.66819e-19 0.876261)
(1.74043 5.4201e-19 0.882944)
(1.79827 -2.77055e-19 0.882515)
(1.86099 0 0.874088)
(1.92602 0 0.855139)
(1.99203 2.92694e-19 0.82455)
(2.05476 0 0.782428)
(2.1114 5.85779e-19 0.728778)
(2.15981 -6.12968e-19 0.666071)
(2.19755 9.14227e-19 0.597022)
(2.22432 -6.27099e-19 0.523767)
(2.24 -3.24435e-19 0.450419)
(2.2457 6.53441e-19 0.378195)
(2.24293 3.26882e-19 0.309158)
(2.23311 -9.99607e-19 0.244246)
(2.21761 0 0.183666)
(2.19776 -5.15955e-19 0.127978)
(2.17435 -1.81169e-19 0.0765983)
(2.14838 3.48906e-19 0.0297465)
(2.12017 3.57019e-19 -0.013311)
(2.09026 -9.2124e-20 -0.0526376)
(2.05878 3.6968e-19 -0.0887805)
(2.02552 -7.3909e-19 -0.12208)
(1.99146 -7.34706e-19 -0.152542)
(1.95173 1.31676e-18 -0.182508)
(1.91578 8.84013e-20 -0.207521)
(1.34712 0 0.634251)
(1.36191 -1.05263e-19 0.64553)
(1.37588 0 0.657633)
(1.38993 9.91722e-20 0.670407)
(1.40457 -9.8621e-20 0.683791)
(1.42011 -5.17224e-22 0.697675)
(1.43694 -1.00116e-19 0.712235)
(1.45541 1.02713e-19 0.727348)
(1.47587 -2.07733e-19 0.743047)
(1.49871 0 0.759007)
(1.52433 -4.3702e-19 0.775074)
(1.55288 6.87527e-19 0.790059)
(1.58485 -3.11912e-22 0.804221)
(1.62165 -2.42027e-19 0.818027)
(1.66403 4.46006e-21 0.830191)
(1.711 -2.54584e-19 0.838099)
(1.76237 -2.63835e-19 0.84046)
(1.81859 5.29706e-19 0.83658)
(1.87778 -1.57908e-20 0.824078)
(1.93923 -8.2875e-19 0.801875)
(1.99951 0 0.76928)
(2.05613 8.50193e-19 0.725763)
(2.10706 -2.91282e-19 0.672848)
(2.14947 -5.8155e-19 0.612334)
(2.18255 5.94641e-19 0.545997)
(2.20536 2.95297e-19 0.477503)
(2.21837 8.86658e-21 0.408272)
(2.22265 0 0.340634)
(2.21927 -3.15463e-19 0.275857)
(2.20952 -4.02174e-21 0.214537)
(2.19468 -3.22474e-19 0.157504)
(2.17564 9.67591e-19 0.104429)
(2.15346 -6.55713e-19 0.0556849)
(2.12861 -8.37063e-20 0.0106678)
(2.10172 -2.46599e-19 -0.0306148)
(2.07304 1.68039e-19 -0.0686603)
(2.04252 3.42996e-19 -0.103779)
(2.01104 6.89589e-19 -0.136012)
(1.97453 -1.30939e-18 -0.167681)
(1.94098 0 -0.194417)
(1.35537 -1.31414e-20 0.607478)
(1.36925 1.12217e-19 0.617788)
(1.38239 -9.61925e-20 0.628832)
(1.39561 -1.41296e-19 0.64047)
(1.40935 4.72156e-20 0.652643)
(1.42389 1.50665e-22 0.665247)
(1.43959 5.13595e-22 0.678443)
(1.45671 -1.95435e-19 0.69212)
(1.47557 1.99102e-19 0.706312)
(1.4965 0 0.720743)
(1.51983 1.93195e-21 0.735295)
(1.54569 -2.15606e-19 0.748943)
(1.57448 -2.19953e-19 0.76197)
(1.60741 2.26204e-19 0.774877)
(1.64515 -4.62247e-19 0.786671)
(1.68693 4.92226e-19 0.795087)
(1.73272 7.35452e-19 0.799138)
(1.7831 -5.16884e-19 0.79832)
(1.83671 0 0.790479)
(1.89327 0 0.774684)
(1.9501 0 0.749802)
(2.00515 -8.02878e-19 0.714993)
(2.05662 2.88121e-19 0.67105)
(2.10168 -5.51913e-19 0.618954)
(2.13918 5.63858e-19 0.560028)
(2.16763 5.64796e-19 0.49731)
(2.18691 -8.51752e-19 0.432222)
(2.19758 0 0.367157)
(2.20031 0 0.303596)
(2.19621 2.97204e-19 0.242458)
(2.1864 3.01181e-19 0.184824)
(2.1718 -4.5757e-21 0.130638)
(2.15348 0 0.0804498)
(2.13203 7.70196e-20 0.0338118)
(2.10814 -3.27507e-19 -0.00917189)
(2.08219 4.74635e-19 -0.0489273)
(2.05425 0 -0.0857139)
(2.02517 -6.38739e-19 -0.119587)
(1.99158 0 -0.152796)
(1.96025 1.33371e-18 -0.181123)
(1.36308 0 0.58201)
(1.37613 2.36394e-20 0.59145)
(1.38853 -2.3068e-20 0.601546)
(1.40099 0 0.612168)
(1.41394 0 0.623261)
(1.4276 -1.8109e-19 0.634727)
(1.44228 0 0.646712)
(1.45823 3.72552e-19 0.659114)
(1.47572 -1.89183e-19 0.671969)
(1.49502 1.93912e-19 0.685038)
(1.51641 -5.98234e-19 0.698227)
(1.54 2.03921e-19 0.710643)
(1.56613 -2.11501e-19 0.722575)
(1.59583 0 0.73453)
(1.62969 -4.38923e-19 0.745728)
(1.6671 2.3697e-19 0.754199)
(1.70811 0 0.759192)
(1.75335 0 0.760367)
(1.80183 0 0.755821)
(1.85356 -4.94987e-19 0.744806)
(1.90647 1.24632e-20 0.725992)
(1.95895 5.2337e-19 0.698406)
(2.00954 -5.18191e-19 0.662331)
(2.05556 -2.01752e-21 0.618087)
(2.09578 0 0.566555)
(2.12835 5.3423e-19 0.51008)
(2.1527 -5.41046e-19 0.449934)
(2.16892 0 0.388395)
(2.17724 5.47734e-19 0.327025)
(2.17852 -8.26428e-19 0.26697)
(2.17364 -2.7733e-19 0.209511)
(2.16351 5.64194e-19 0.154854)
(2.14911 -2.88838e-19 0.103727)
(2.13112 0 0.0558642)
(2.11028 -5.18234e-19 0.011483)
(2.08705 9.64534e-19 -0.0297508)
(2.06163 2.81224e-21 -0.0680269)
(2.03481 -2.97945e-19 -0.103399)
(2.0039 1.15515e-18 -0.138014)
(1.97461 -2.4844e-18 -0.167813)
(1.37029 0 0.557754)
(1.38259 -1.35279e-19 0.56641)
(1.39431 1.31081e-19 0.575653)
(1.4061 -8.58288e-20 0.585363)
(1.41833 8.62155e-20 0.595488)
(1.43119 1.7288e-19 0.605936)
(1.44498 -8.72647e-20 0.61684)
(1.45991 2.67685e-19 0.628107)
(1.47619 -3.62748e-19 0.63977)
(1.49408 5.5867e-19 0.65162)
(1.51381 -1.32625e-21 0.663584)
(1.53547 1.96178e-19 0.674874)
(1.55935 -2.01131e-19 0.685777)
(1.58633 0 0.696785)
(1.61692 2.1146e-19 0.707273)
(1.65064 -2.14935e-19 0.715523)
(1.68755 4.49274e-19 0.720964)
(1.72832 0 0.723382)
(1.77219 0 0.721119)
(1.81936 4.79951e-19 0.713603)
(1.86825 -4.82551e-19 0.699465)
(1.91762 1.08691e-20 0.677714)
(1.96636 5.03257e-19 0.648307)
(2.01206 9.91869e-19 0.611083)
(2.05355 -5.08303e-19 0.566548)
(2.08882 0 0.516379)
(2.117 5.07272e-19 0.461611)
(2.13781 -5.17337e-19 0.404277)
(2.15104 5.23307e-19 0.345898)
(2.15727 0 0.287739)
(2.15712 5.27295e-19 0.231205)
(2.15136 -2.57836e-19 0.176732)
(2.1409 -5.43573e-19 0.125212)
(2.12642 5.40696e-19 0.0765643)
(2.10869 -6.86119e-20 0.0311329)
(2.08821 -5.17704e-20 -0.011308)
(2.0653 1.40892e-19 -0.0508635)
(2.04071 0 -0.0875692)
(2.01229 -2.1592e-18 -0.123452)
(1.9849 -2.98903e-21 -0.154608)
(1.37706 0 0.534629)
(1.38867 -5.4521e-23 0.542576)
(1.39977 4.16469e-20 0.551049)
(1.41094 -4.12585e-20 0.559937)
(1.42252 1.6488e-19 0.569192)
(1.43467 0 0.578726)
(1.44766 -1.6797e-19 0.588661)
(1.46168 -1.71288e-19 0.59891)