/*--------------------------------*- C++ -*----------------------------------*\
| =========                 |                                                 |
| \\      /  F ield         | OpenFOAM: The Open Source CFD Toolbox           |
|  \\    /   O peration     | Version:  5.x                                   |
|   \\  /    A nd           | Web:      www.OpenFOAM.org                      |
|    \\/     M anipulation  |                                                 |
\*---------------------------------------------------------------------------*/
FoamFile
{
    version     2.0;
    format      ascii;
    class       volScalarField;
    location    "200";
    object      nut;
}
// * * * * * * * * * * * * * * * * * * * * * * * * * * * * * * * * * * * * * //

dimensions      [0 2 -1 0 0 0 0];

internalField   nonuniform List<scalar> 
26000
(
0.000487724
0.00031378
0.00020231
0.000139944
9.58947e-05
5.69197e-05
2.93234e-05
1.87594e-05
1.23012e-05
8.1711e-06
5.70943e-06
4.47644e-06
3.24032e-06
2.62757e-06
2.64309e-06
2.65457e-06
3.05338e-06
3.38089e-06
3.83739e-06
4.61969e-06
5.49456e-06
6.53422e-06
8.13758e-06
1.05858e-05
1.63586e-05
2.90304e-05
4.20382e-05
5.25339e-05
6.11395e-05
6.81499e-05
7.37016e-05
7.82929e-05
8.23542e-05
8.58551e-05
8.88413e-05
9.0914e-05
9.18284e-05
9.1835e-05
9.0453e-05
8.96745e-05
0.00216727
0.00158058
0.00109188
0.00076449
0.000557987
0.000431258
0.00035741
0.000305334
0.000258905
0.000221886
0.000193505
0.00017534
0.000159484
0.000142967
0.000139983
0.000139379
0.000139712
0.000147194
0.00015461
0.000165733
0.000174332
0.000182879
0.000193851
0.000203092
0.000213243
0.00022231
0.000230786
0.000239841
0.000248814
0.000255196
0.000258346
0.000259953
0.000261088
0.000261642
0.000261483
0.000259009
0.000253257
0.000245694
0.000237558
0.000230999
0.004068
0.00333288
0.00253038
0.00185327
0.00135829
0.00101912
0.000787418
0.000633146
0.000526535
0.000454764
0.000406982
0.000376405
0.000354874
0.000337675
0.000330651
0.000325383
0.000319758
0.000318755
0.000317826
0.00031227
0.000309716
0.000309202
0.0003101
0.0003137
0.000319448
0.000327821
0.00033478
0.000341416
0.000348799
0.000357931
0.000368501
0.000381487
0.000397062
0.000414447
0.000432858
0.000445883
0.000447505
0.000444113
0.000436808
0.000431861
0.00616929
0.00535804
0.00436685
0.00342843
0.00262822
0.00201048
0.0015526
0.0012302
0.00100403
0.000851367
0.000749581
0.000683845
0.000636852
0.000596812
0.000565794
0.000539747
0.00052193
0.000509627
0.000503261
0.000500957
0.000503328
0.000508247
0.000514848
0.000524025
0.000535968
0.000551038
0.000560055
0.000567073
0.000574703
0.000583501
0.000592476
0.000600488
0.000609284
0.000618122
0.000627899
0.000637397
0.000646191
0.000655621
0.000657038
0.00065709
0.00840873
0.0075646
0.00647532
0.00534897
0.00431269
0.00342098
0.00269683
0.00214608
0.00173766
0.00144933
0.00125016
0.00111786
0.00102326
0.000942729
0.000875355
0.000829232
0.000800673
0.000782294
0.000771921
0.000766733
0.000767761
0.000771043
0.000774059
0.000779889
0.000789283
0.000803453
0.000817513
0.000832227
0.000848111
0.000864958
0.000879265
0.000889708
0.000899943
0.000907963
0.000915193
0.000920697
0.00092538
0.000929207
0.000928924
0.000933734
0.0107583
0.00990597
0.00877629
0.00754166
0.00632529
0.00520931
0.00422877
0.00342208
0.0027842
0.00230697
0.00196143
0.00172288
0.00155006
0.00140456
0.00129299
0.00121694
0.00116809
0.00113501
0.00111296
0.00109457
0.00108465
0.00108313
0.00108762
0.00109648
0.00110882
0.00112601
0.00114041
0.00115551
0.00117235
0.00118932
0.00120678
0.00122348
0.00124065
0.00125229
0.00126103
0.00126556
0.00126742
0.00126645
0.00125783
0.00125919
0.0131995
0.012358
0.0112198
0.0099339
0.00860525
0.00731897
0.00611911
0.00506697
0.00417963
0.00347527
0.00293811
0.00255016
0.00226048
0.00202359
0.00184379
0.00171998
0.00163593
0.00157398
0.00152915
0.00149686
0.00147856
0.00147145
0.00147215
0.0014774
0.00148531
0.00149971
0.00151695
0.00153652
0.00155823
0.00157685
0.00159487
0.00161159
0.00162839
0.00164273
0.00165604
0.00166227
0.0016633
0.00165886
0.00164201
0.00163769
0.0157152
0.0148973
0.0137714
0.0124714
0.011085
0.00968686
0.00832269
0.00705565
0.00592972
0.00498378
0.00422362
0.00364873
0.00320447
0.00284028
0.00256082
0.00236451
0.00222676
0.00212064
0.00204584
0.00199224
0.00195825
0.00193839
0.00192653
0.00192537
0.00193115
0.00194436
0.00196031
0.00197807
0.00199872
0.00201944
0.00204124
0.00206005
0.00207671
0.00208948
0.00210073
0.00210762
0.00210948
0.00210281
0.00207866
0.00206829
0.0182899
0.017504
0.0164046
0.0151153
0.0137099
0.0122507
0.0107753
0.00934843
0.00801341
0.006835
0.00584092
0.00505306
0.00442224
0.00389509
0.00348075
0.00318224
0.00296722
0.00280061
0.00268133
0.00259435
0.00253372
0.00249196
0.00246593
0.00245496
0.0024529
0.00245837
0.00246998
0.00248678
0.00250745
0.00252609
0.00254618
0.00256471
0.00258316
0.00259555
0.00260422
0.00260707
0.00260565
0.00259706
0.00256642
0.00254977
0.0209096
0.0201612
0.0190971
0.0178358
0.0164384
0.0149567
0.0134179
0.0118804
0.0103893
0.00900998
0.00779173
0.00678282
0.00594331
0.00522294
0.00463974
0.00420711
0.00388698
0.00363827
0.00345584
0.00331953
0.00321933
0.00314911
0.00310134
0.00307265
0.00305534
0.00305192
0.00305686
0.00306711
0.00308221
0.0030988
0.00311787
0.00313325
0.00314823
0.00315902
0.00316621
0.00316477
0.0031571
0.00314221
0.00310514
0.00308167
0.0235609
0.0228542
0.0218332
0.0206102
0.0192387
0.017762
0.0161977
0.0145951
0.0129957
0.0114633
0.010053
0.0088343
0.00777975
0.00684721
0.00606761
0.00547099
0.00501709
0.00466019
0.00439266
0.00418655
0.004034
0.00392378
0.00384368
0.00378824
0.00375129
0.00373296
0.00372397
0.00372483
0.00373353
0.00374278
0.00375569
0.00376786
0.00377888
0.00378414
0.00378613
0.00378056
0.00376618
0.00374228
0.00369581
0.0036641
0.0262305
0.025568
0.0245953
0.0234183
0.022085
0.0206323
0.0190705
0.0174394
0.0157742
0.014136
0.0125759
0.0111787
0.00992141
0.00877378
0.00778185
0.00699793
0.00638372
0.00589227
0.00551573
0.00521913
0.0049961
0.00483109
0.00470491
0.00461455
0.00454993
0.00450698
0.0044806
0.00446734
0.00446193
0.00446217
0.00446754
0.00447155
0.00447568
0.00447467
0.00446871
0.00445462
0.0044331
0.00439931
0.00433873
0.00429749
0.0289059
0.0282889
0.0273677
0.0262422
0.0249556
0.0235401
0.0220005
0.020369
0.0186731
0.0169677
0.0153036
0.013763
0.0123342
0.010987
0.00978265
0.00879953
0.00800476
0.00735532
0.00684626
0.00643735
0.00612391
0.005887
0.00570087
0.00556366
0.00545878
0.00538518
0.0053346
0.00529906
0.00527685
0.00526272
0.00525503
0.00524924
0.00524288
0.00523124
0.00521624
0.00519115
0.00515844
0.005114
0.00503769
0.0049829
0.0315756
0.0310042
0.0301364
0.0290657
0.0278316
0.0264623
0.0249589
0.0233476
0.0216491
0.019911
0.0181804
0.0165385
0.0149705
0.0134521
0.0120511
0.0108687
0.00988491
0.00906144
0.00840003
0.00785755
0.00743374
0.00710526
0.00684436
0.00664786
0.00649097
0.00637676
0.00629147
0.00622859
0.00618321
0.00614868
0.00612449
0.00610198
0.00608334
0.00605813
0.00602942
0.00599187
0.00594515
0.00588709
0.00579359
0.00572234
0.0342289
0.0337027
0.0328887
0.0318746
0.0306967
0.0293796
0.0279219
0.0263452
0.0246647
0.0229213
0.0211568
0.0194504
0.0177818
0.0161257
0.0145538
0.0131867
0.012016
0.0110112
0.0101849
0.0094909
0.00893825
0.0085003
0.0081473
0.00787519
0.00765547
0.00749033
0.00736097
0.00726249
0.00718573
0.00712578
0.00707813
0.00703615
0.00699791
0.00695713
0.00691182
0.00685754
0.00679501
0.0067187
0.00660687
0.0065172
0.036856
0.0363739
0.0356134
0.0346565
0.0335365
0.0322754
0.0308697
0.0293375
0.0276898
0.0259616
0.0241891
0.022447
0.0207146
0.018958
0.0172503
0.0157223
0.0143771
0.0131931
0.0121943
0.0113392
0.0106438
0.0100808
0.00961986
0.00925689
0.00896082
0.00873182
0.00854951
0.00840501
0.00829034
0.0081965
0.00812143
0.00805281
0.00799237
0.00792894
0.00786482
0.00779057
0.00770899
0.00761227
0.00747836
0.00736809
0.0394479
0.0390086
0.0383006
0.0374004
0.0363388
0.0351356
0.0337858
0.0323046
0.0307
0.0290021
0.0272418
0.0254885
0.0237209
0.0218987
0.020089
0.0184321
0.0169355
0.0155853
0.0144162
0.0133962
0.0125494
0.0118492
0.011267
0.0107994
0.0104139
0.0101087
0.00986312
0.00966277
0.00950174
0.0093667
0.0092554
0.00915665
0.00906714
0.00897831
0.00888899
0.00879224
0.00868689
0.0085681
0.00840791
0.00827542
0.0419966
0.0415985
0.0409423
0.040097
0.0390932
0.0379482
0.0366564
0.0352303
0.0336757
0.0320186
0.0302853
0.0285397
0.0267589
0.024902
0.0230245
0.0212699
0.0196474
0.0181517
0.0168261
0.0156462
0.0146467
0.0138015
0.0130883
0.0125044
0.0120181
0.0116247
0.0113035
0.0110391
0.0108221
0.0106395
0.0104851
0.0103478
0.0102259
0.0101053
0.00998768
0.0098631
0.00973155
0.00958668
0.00939772
0.00923974
0.0444949
0.0441352
0.043528
0.0427368
0.04179
0.040703
0.0394698
0.0381011
0.036601
0.0349917
0.0332963
0.031573
0.029798
0.0279293
0.0260132
0.0241891
0.0224727
0.0208577
0.0193935
0.0180658
0.0169153
0.0159254
0.0150775
0.0143686
0.0137705
0.0132804
0.0128735
0.0125362
0.0122545
0.012015
0.0118124
0.01163
0.0114683
0.0113122
0.0111608
0.011005
0.0108431
0.0106672
0.0104477
0.0102608
0.0469373
0.0466138
0.0460526
0.0453133
0.0444216
0.0433916
0.0422167
0.0409063
0.0394629
0.0379062
0.0362559
0.0345654
0.0328104
0.0309483
0.0290185
0.0271526
0.0253684
0.0236591
0.0220818
0.0206215
0.0193324
0.0182031
0.0172189
0.0163828
0.015667
0.0150737
0.014572
0.0141517
0.0137991
0.0134951
0.013236
0.0130038
0.0127969
0.0125983
0.0124094
0.0122178
0.0120206
0.0118118
0.011558
0.0113379
0.0493191
0.0490301
0.0485117
0.0478213
0.0469824
0.0460074
0.0448895
0.0436371
0.0422515
0.04075
0.0391498
0.0374994
0.0357746
0.0339318
0.0320086
0.0301242
0.0282955
0.0265208
0.0248545
0.0232831
0.0218711
0.0206137
0.0194972
0.0185347
0.0176982
0.016995
0.0163944
0.015884
0.0154518
0.0150783
0.0147569
0.014467
0.0142087
0.0139642
0.0137327
0.0134999
0.013265
0.0130196
0.0127277
0.0124723
0.0516353
0.0513773
0.0508999
0.0502561
0.0494674
0.0485452
0.0474827
0.0462871
0.0449592
0.0435141
0.041967
0.040362
0.0386754
0.0368638
0.0349607
0.0330764
0.0312256
0.0294072
0.0276736
0.0260174
0.0245017
0.0231277
0.0218904
0.0208082
0.019852
0.0190363
0.0183342
0.0177287
0.0172101
0.0167596
0.0163694
0.016019
0.0157045
0.0154072
0.015128
0.0148519
0.014575
0.0142891
0.0139549
0.0136629
0.0538843
0.0536539
0.0532144
0.0526143
0.0518732
0.0510013
0.049992
0.0488516
0.0475804
0.0461918
0.0446992
0.0431428
0.0414997
0.0397276
0.0378557
0.0359861
0.0341309
0.0322878
0.0305112
0.0287912
0.0271912
0.0257191
0.0243753
0.0231794
0.0221118
0.0211846
0.0203782
0.0196776
0.019069
0.0185364
0.0180721
0.0176545
0.0172785
0.0169264
0.0165956
0.0162715
0.0159479
0.0156179
0.0152407
0.014909
0.0560607
0.0558567
0.0554528
0.0548937
0.0541974
0.0533732
0.0524147
0.0513275
0.0501114
0.0487786
0.0473408
0.0458346
0.0442384
0.0425112
0.0406788
0.0388353
0.0369909
0.0351414
0.0333398
0.0315744
0.0299134
0.0283621
0.0269244
0.0256275
0.0244549
0.0234238
0.0225154
0.0217175
0.0210196
0.020403
0.0198611
0.0193722
0.0189296
0.0185173
0.018131
0.0177549
0.0173836
0.0170068
0.0165833
0.0162091
0.0581648
0.0579848
0.0576138
0.057093
0.0564387
0.0556596
0.0547493
0.0537129
0.0525501
0.0512718
0.0498883
0.0484331
0.0468856
0.0452067
0.0434192
0.0416105
0.0397882
0.037947
0.0361372
0.0343461
0.0326413
0.0310294
0.0295163
0.0281326
0.0268646
0.0257382
0.0247332
0.0238384
0.0230491
0.0223467
0.0217251
0.0211624
0.0206533
0.0201781
0.0197329
0.0193018
0.0188788
0.0184526
0.01798
0.0175608
0.0601963
0.060038
0.0596974
0.059212
0.0585971
0.0578601
0.0569954
0.0560074
0.0548958
0.0536702
0.0523401
0.0509358
0.0494381
0.0478094
0.0460692
0.0443022
0.0425106
0.0406888
0.038884
0.0370837
0.0353517
0.0336945
0.0321228
0.0306683
0.0293212
0.0281064
0.0270112
0.026028
0.0251486
0.0243607
0.0236586
0.0230206
0.0224418
0.0219013
0.021395
0.0209065
0.0204292
0.0199511
0.0194275
0.0189613
0.0621551
0.0620167
0.061704
0.0612514
0.0606729
0.0599755
0.0591536
0.0582115
0.0571486
0.0559739
0.0546957
0.053342
0.0518946
0.0503181
0.0486293
0.0469063
0.0451512
0.0433567
0.0415657
0.0397706
0.0380252
0.0363425
0.0347293
0.0332188
0.0318029
0.0305136
0.0293357
0.0282686
0.0273061
0.0264357
0.0256542
0.0249406
0.024291
0.0236836
0.0231144
0.0225671
0.0220336
0.021502
0.0209257
0.020411
0.0640423
0.0639218
0.0636346
0.0632123
0.0626676
0.062007
0.0612253
0.0603265
0.05931
0.0581839
0.056956
0.0556516
0.0542543
0.0527309
0.0510968
0.0494198
0.0477053
0.045945
0.0441779
0.0423973
0.0406522
0.0389564
0.037316
0.0357641
0.0342949
0.0329402
0.0316926
0.0305494
0.0295053
0.0285557
0.0276972
0.0269096
0.0261905
0.0255158
0.0248831
0.0242772
0.0236864
0.0231005
0.0224705
0.0219064
0.0658592
0.0657548
0.0654908
0.0650963
0.064583
0.0639567
0.0632126
0.0623546
0.061382
0.0603023
0.0591227
0.0578662
0.0565179
0.0550468
0.0534666
0.0518392
0.050169
0.0484481
0.0467122
0.0449546
0.0432204
0.0415228
0.0398671
0.0382853
0.0367783
0.0353733
0.0340639
0.0328533
0.0317352
0.0307121
0.0297805
0.0289209
0.0281353
0.0273931
0.0266988
0.0260304
0.0253811
0.0247414
0.0240576
0.0234438
0.0676075
0.0675176
0.0672747
0.0669057
0.0664213
0.0658268
0.065118
0.0642983
0.0633673
0.0623318
0.0611984
0.0599884
0.0586879
0.0572681
0.0557413
0.0541643
0.0525408
0.0508631
0.0491636
0.047436
0.0457214
0.0440318
0.0423704
0.0407739
0.0392379
0.0377963
0.0364394
0.035172
0.0339892
0.0328969
0.0318993
0.0309692
0.0301159
0.0293102
0.0285528
0.0278231
0.0271172
0.0264203
0.0256819
0.0250194
0.0692891
0.0692121
0.0689884
0.0686428
0.068185
0.0676201
0.0669442
0.0661605
0.0652688
0.0642754
0.0631863
0.0620213
0.0607674
0.0593979
0.0579236
0.0563969
0.0548215
0.0531893
0.0515302
0.0498378
0.0481497
0.0464771
0.044822
0.0432204
0.0416676
0.0401961
0.0388035
0.037489
0.0362537
0.0350998
0.0340378
0.033045
0.0321257
0.0312593
0.0304423
0.0296519
0.0288869
0.0281352
0.0273432
0.0266298
0.070906
0.0708404
0.0706342
0.07031
0.0698768
0.0693395
0.0686943
0.0679445
0.0670898
0.0661363
0.0650897
0.063968
0.0627597
0.0614404
0.0600165
0.0585397
0.0570126
0.0554275
0.0538115
0.0521581
0.0505018
0.0488532
0.0472131
0.045616
0.0440572
0.0425675
0.0411455
0.0397971
0.0385185
0.0373111
0.0361902
0.0351402
0.0341608
0.033235
0.0323569
0.0315104
0.0306884
0.02988
0.0290377
0.0282746
0.0724602
0.0724048
0.0722144
0.0719098
0.0714995
0.0709877
0.0703713
0.0696533
0.0688337
0.0679182
0.0669121
0.0658319
0.0646672
0.0633954
0.062022
0.0605947
0.0591164
0.0575795
0.0560087
0.0543968
0.0527763
0.0511567
0.0495384
0.0479538
0.0463982
0.0449006
0.0434602
0.0420851
0.0407741
0.0395209
0.0383479
0.0372458
0.0362112
0.035229
0.0342943
0.0333932
0.0325163
0.0316531
0.0307592
0.0299497
0.0739539
0.0739075
0.0737315
0.073445
0.0730557
0.0725678
0.0719784
0.0712904
0.070504
0.0696245
0.0686571
0.067617
0.0664954
0.0652682
0.0639435
0.062565
0.0611353
0.0596474
0.0581246
0.0565551
0.054973
0.0533865
0.0517952
0.0502294
0.0486844
0.0471874
0.0457376
0.0443421
0.0430071
0.0417185
0.0405015
0.0393524
0.0382675
0.0372316
0.036247
0.0352938
0.0343643
0.0334491
0.0325021
0.0316489
0.0753889
0.0753505
0.0751877
0.0749178
0.0745481
0.0740825
0.0735185
0.0728589
0.072104
0.0712589
0.0703282
0.0693263
0.0682448
0.0670618
0.0657847
0.064454
0.0630721
0.0616327
0.060157
0.058633
0.0570922
0.0555422
0.0539822
0.0524402
0.0509119
0.0494227
0.0479717
0.0465655
0.0452122
0.0438961
0.0426427
0.0414508
0.0403206
0.0392391
0.0382051
0.0372049
0.0362264
0.0352611
0.0342651
0.0333693
0.0767671
0.0767359
0.076585
0.0763306
0.0759792
0.0755347
0.0749947
0.074362
0.0736371
0.0728248
0.0719297
0.070965
0.069921
0.0687801
0.0675491
0.0662653
0.0649308
0.0635395
0.0621104
0.060633
0.0591356
0.0576247
0.0560997
0.0545852
0.0530783
0.0516026
0.0501572
0.048748
0.0473833
0.046047
0.0447648
0.0435388
0.0423687
0.0412457
0.0401663
0.0391207
0.0380966
0.0370832
0.0360435
0.0351068
0.07809
0.0780654
0.0779256
0.0776855
0.0773514
0.0769266
0.0764095
0.0758026
0.0751064
0.0743255
0.0734646
0.0725338
0.0715265
0.0704265
0.0692404
0.0680024
0.0667147
0.0653724
0.0639886
0.0625576
0.0611065
0.0596353
0.0581493
0.0566644
0.0551824
0.0537249
0.0522907
0.0508849
0.0495151
0.0481653
0.046861
0.0456044
0.0444035
0.043245
0.0421254
0.0410345
0.0399695
0.0389134
0.0378333
0.0368566
0.0793591
0.0793405
0.0792111
0.0789845
0.0786666
0.0782607
0.0777654
0.0771833
0.0765153
0.075764
0.0749338
0.0740359
0.0730643
0.0720042
0.0708618
0.0696686
0.0684265
0.0671306
0.0657929
0.0644084
0.0630021
0.0615732
0.060127
0.058677
0.0572238
0.0557883
0.0543701
0.0529735
0.0516036
0.0502465
0.0489269
0.0476476
0.0464202
0.0452309
0.0440762
0.0429465
0.0418406
0.040747
0.0396313
0.0386191
0.0805761
0.0805631
0.0804434
0.0802296
0.0799272
0.0795392
0.0790644
0.078506
0.0778629
0.0771394
0.0763397
0.0754741
0.0745375
0.0735164
0.0724168
0.0712679
0.0700715
0.0688199
0.0675275
0.0661893
0.0648275
0.0634418
0.0620363
0.0606253
0.059203
0.0577927
0.0563941
0.0550126
0.0536459
0.0522866
0.0509579
0.0496624
0.0484136
0.0471981
0.046013
0.0448516
0.0437096
0.0425811
0.0414317
0.0403902
0.0817425
0.081735
0.0816246
0.081423
0.0811352
0.0807649
0.0803093
0.0797714
0.0791522
0.0784556
0.0776854
0.0768515
0.0759491
0.0749663
0.0739087
0.0728035
0.0716495
0.0704425
0.0691958
0.0679048
0.0665864
0.0652452
0.0638791
0.0625064
0.061121
0.0597382
0.058362
0.0569963
0.055638
0.0542824
0.0529505
0.0516448
0.0503794
0.0491414
0.0479339
0.0467459
0.0455725
0.0444126
0.0432307
0.0421665
0.0828597
0.0828575
0.0827567
0.0825666
0.0822922
0.0819365
0.0814988
0.0809815
0.0803857
0.0797154
0.0789742
0.0781714
0.0773027
0.0763572
0.0753408
0.0742759
0.0731641
0.0720016
0.0708009
0.0695541
0.0682798
0.0669817
0.0656573
0.0643231
0.0629744
0.0616255
0.0602754
0.0589263
0.0575781
0.0562321
0.0549026
0.0535922
0.0523137
0.0510621
0.0498366
0.0486263
0.0474261
0.0462387
0.04503
0.0439462
0.0839282
0.083931
0.0838376
0.0836579
0.0833964
0.0830559
0.0826359
0.082139
0.0815664
0.0809218
0.0802091
0.079437
0.0786023
0.0776927
0.0767139
0.0756888
0.0746189
0.073501
0.072343
0.0711412
0.0699126
0.0686568
0.0673757
0.0660796
0.0647674
0.0634512
0.0621294
0.0608029
0.0594704
0.0581363
0.0568134
0.0555036
0.0542191
0.0529579
0.0517187
0.0504905
0.0492678
0.0480569
0.046827
0.0457271
0.0849494
0.0849562
0.0848703
0.0847008
0.0844519
0.0841265
0.0837241
0.0832474
0.0826976
0.0820783
0.0813933
0.0806513
0.0798471
0.0789722
0.0780313
0.0770459
0.0760179
0.0749413
0.0738264
0.07267
0.0714842
0.0702729
0.0690331
0.0677789
0.0665048
0.0652208
0.0639285
0.0626285
0.061314
0.0599949
0.0586826
0.0573782
0.0560931
0.0548271
0.0535785
0.0523365
0.0510954
0.0498645
0.0486166
0.0475064
0.0859266
0.0859372
0.0858585
0.0856989
0.0854625
0.085152
0.0847669
0.0843102
0.0837837
0.0831892
0.0825306
0.0818157
0.0810418
0.080201
0.0792975
0.0783517
0.0773625
0.0763274
0.0752561
0.0741417
0.0729989
0.0718303
0.0706331
0.0694197
0.0681842
0.0669372
0.065676
0.0644001
0.0631081
0.0618083
0.0605107
0.0592161
0.0579352
0.056669
0.0554152
0.0541632
0.0529076
0.0516601
0.0503972
0.0492823
0.0868631
0.0868774
0.0868058
0.0866559
0.0864318
0.0861365
0.0857684
0.0853304
0.0848241
0.084253
0.0836205
0.0829338
0.0821906
0.0813846
0.0805176
0.0796084
0.078658
0.0776647
0.076634
0.0755624
0.0744637
0.0733367
0.0721831
0.0710105
0.0698117
0.0686
0.0673703
0.0661199
0.0648551
0.0635784
0.0622993
0.0610185
0.0597462
0.0584838
0.0572286
0.0559703
0.0547037
0.0534426
0.0521666
0.0510542
0.0877624
0.0877803
0.0877161
0.0875757
0.0873628
0.0870802
0.086728
0.0863085
0.0858233
0.0852756
0.0846692
0.0840113
0.0832982
0.082524
0.0816926
0.0808216
0.0799097
0.0789555
0.0779671
0.0769379
0.0758806
0.074797
0.073684
0.0725515
0.0713929
0.070217
0.0690195
0.0677969
0.0665599
0.0653087
0.0640513
0.0627879
0.0615279
0.060273
0.05902
0.0577579
0.056484
0.0552116
0.0539289
0.0528215
0.0886279
0.0886483
0.0885901
0.0884584
0.0882568
0.0879877
0.0876517
0.0872517
0.0867877
0.0862634
0.0856822
0.0850504
0.0843664
0.0836255
0.082829
0.0819933
0.0811191
0.0802055
0.0792568
0.0782698
0.0772564
0.0762138
0.0751438
0.0740511
0.072929
0.0717876
0.0706216
0.0694328
0.0682266
0.0670035
0.0657706
0.0645276
0.0632831
0.0620391
0.0607914
0.0595267
0.0582494
0.0569715
0.0556848
0.0545851
0.0894651
0.0894871
0.0894343
0.0893119
0.0891216
0.088866
0.0885453
0.0881622
0.0877182
0.087217
0.0866622
0.0860579
0.0854028
0.0846922
0.08393
0.0831314
0.082295
0.0814193
0.0805118
0.0795669
0.0785955
0.0775947
0.0765655
0.0755111
0.0744285
0.0733211
0.0721891
0.0710344
0.0698607
0.0686679
0.0674619
0.0662419
0.0650157
0.0637853
0.062546
0.0612838
0.060005
0.0587234
0.0574351
0.0563457
0.09028
0.0903023
0.0902534
0.0901384
0.0899589
0.0897175
0.0894129
0.0890478
0.088624
0.0881449
0.0876138
0.0870371
0.0864115
0.0857328
0.0850045
0.0842402
0.0834419
0.0826049
0.0817356
0.0808323
0.079901
0.0789426
0.0779528
0.0769392
0.0758949
0.074823
0.073727
0.0726079
0.0714685
0.0703077
0.0691305
0.0679355
0.0667299
0.0655155
0.0642872
0.0630306
0.0617526
0.060469
0.0591812
0.0581034
0.0910802
0.0911015
0.0910552
0.0909463
0.090777
0.0905484
0.0902594
0.0899125
0.0895091
0.0890524
0.0885455
0.0879939
0.0873969
0.0867511
0.0860575
0.0853284
0.0845655
0.0837679
0.0829376
0.0820728
0.0811829
0.0802648
0.0793147
0.0783396
0.0773311
0.076299
0.0752418
0.0741602
0.0730565
0.0719291
0.0707821
0.0696139
0.0684306
0.067234
0.0660186
0.0647699
0.0634945
0.06221
0.0609251
0.0598637
0.0918746
0.0918934
0.091848
0.0917433
0.0915818
0.0913646
0.0910907
0.0907627
0.0903803
0.0899465
0.0894643
0.0889391
0.0883704
0.0877548
0.0870959
0.0864022
0.0856755
0.0849153
0.0841236
0.083298
0.0824471
0.0815661
0.0806547
0.0797175
0.0787503
0.0777589
0.0767416
0.0756986
0.0746316
0.0735386
0.0724229
0.0712825
0.0701227
0.0689452
0.0677441
0.0665049
0.0652338
0.0639474
0.0626688
0.0616266
0.0926706
0.092686
0.0926404
0.0925388
0.0923839
0.0921768
0.0919176
0.091607
0.0912448
0.0908337
0.0903763
0.0898778
0.0893375
0.0887525
0.0881264
0.087467
0.0867755
0.0860508
0.0852976
0.0845109
0.0836987
0.0828556
0.0819841
0.0810874
0.0801615
0.0792114
0.0782345
0.0772306
0.0762007
0.0751425
0.0740586
0.0729466
0.0718111
0.0706535
0.0694677
0.0682391
0.0669737
0.0656888
0.0644161
0.0633965
0.0934723
0.0934836
0.0934371
0.0933377
0.093188
0.0929896
0.0927426
0.0924481
0.0921062
0.0917176
0.0912849
0.0908128
0.0903009
0.0897459
0.0891515
0.0885254
0.087869
0.0871814
0.0864631
0.0857141
0.0849399
0.0841387
0.0833091
0.0824542
0.0815704
0.0806618
0.0797256
0.0787612
0.077769
0.0767461
0.0756946
0.0746114
0.0735005
0.0723631
0.0711931
0.0699758
0.0687172
0.0674353
0.0661688
0.0651721
0.0942842
0.0942911
0.0942431
0.0941452
0.0940001
0.0938093
0.0935732
0.0932932
0.0929694
0.0926031
0.0921946
0.0917484
0.0912651
0.0907395
0.0901741
0.0895805
0.0889585
0.0883064
0.0876272
0.0869181
0.0861842
0.0854244
0.0846369
0.0838243
0.0829826
0.0821156
0.0812201
0.080295
0.0793403
0.0783528
0.0773337
0.0762796
0.0751939
0.0740773
0.0729233
0.0717178
0.0704665
0.0691886
0.0679287
0.066955
0.0951108
0.0951131
0.0950634
0.0949668
0.0948259
0.0946423
0.0944165
0.0941498
0.0938428
0.0934965
0.0931112
0.0926886
0.0922308
0.0917346
0.0912024
0.0906429
0.0900565
0.0894414
0.0888008
0.0881317
0.0874386
0.0867202
0.0859746
0.0852039
0.084404
0.083578
0.0827225
0.0818363
0.0809186
0.0799659
0.078979
0.0779539
0.0768932
0.0757975
0.0746602
0.0734672
0.0722239
0.0709504
0.0696971
0.0687463
0.0959568
0.0959544
0.0959031
0.0958078
0.0956711
0.0954947
0.095279
0.0950255
0.0947346
0.0944074
0.0940441
0.093646
0.093215
0.0927485
0.0922484
0.0917229
0.0911722
0.0905944
0.0899923
0.0893628
0.0887101
0.0880326
0.0873283
0.0865987
0.0858396
0.0850538
0.0842375
0.0833891
0.0825074
0.0815888
0.0806332
0.0796365
0.0786004
0.0775251
0.0764044
0.0752245
0.0739904
0.0727219
0.0714752
0.0705469
0.0968268
0.0968199
0.0967672
0.0966734
0.0965412
0.0963722
0.096167
0.0959268
0.0956522
0.0953441
0.0950028
0.0946293
0.0942254
0.0937885
0.0933204
0.0928287
0.0923133
0.0917724
0.0912082
0.0906178
0.0900047
0.0893672
0.0887031
0.0880135
0.0872941
0.0865471
0.0857686
0.0849567
0.0841098
0.083224
0.0822988
0.0813296
0.0803173
0.0792611
0.0781567
0.0769903
0.0757663
0.0745039
0.0732635
0.0723568
0.0977256
0.0977145
0.0976607
0.0975689
0.0974416
0.0972806
0.0970862
0.0968598
0.0966018
0.0963131
0.0959939
0.0956452
0.0952685
0.0948611
0.0944247
0.0939664
0.0934859
0.0929811
0.0924541
0.0919017
0.0913272
0.0907284
0.090103
0.0894519
0.0887707
0.0880609
0.0873186
0.0865416
0.085728
0.0848736
0.0839775
0.0830347
0.0820452
0.0810056
0.0799174
0.0787652
0.0775524
0.0762964
0.0750621
0.074176
0.098658
0.098643
0.0985886
0.0984993
0.0983774
0.0982248
0.0980418
0.0978297
0.0975887
0.0973198
0.097023
0.0966991
0.0963495
0.0959714
0.0955663
0.0951408
0.0946943
0.0942247
0.0937338
0.0932181
0.0926806
0.092119
0.0915308
0.0909164
0.0902714
0.089597
0.0888891
0.0881452
0.0873631
0.0865385
0.0856701
0.0847525
0.0837853
0.0827641
0.0816916
0.0805534
0.0793499
0.0780994
0.0768707
0.0760037
0.0996284
0.0996101
0.0995555
0.0994691
0.0993533
0.0992097
0.0990386
0.0988411
0.0986175
0.0983686
0.0980942
0.0977951
0.0974723
0.097123
0.0967486
0.096355
0.0959415
0.0955058
0.0950495
0.094569
0.0940667
0.0935404
0.0929874
0.0924077
0.0917969
0.0911558
0.0904802
0.0897675
0.0890151
0.0882187
0.0873765
0.086483
0.0855371
0.0845344
0.0834775
0.0823547
0.0811582
0.0799122
0.0786884
0.0778382
0.100641
0.100619
0.100565
0.100482
0.100373
0.100239
0.10008
0.0998976
0.0996916
0.0994626
0.0992104
0.0989358
0.0986392
0.0983181
0.0979732
0.0976104
0.0972285
0.0968252
0.0964018
0.0959545
0.0954856
0.0949925
0.0944724
0.0939252
0.0933464
0.0927365
0.0920912
0.0914076
0.0906831
0.089913
0.0890955
0.0882248
0.0872995
0.0863147
0.0852728
0.0841623
0.0829743
0.0817332
0.0805138
0.0796781
0.101698
0.101674
0.101621
0.101542
0.10144
0.101315
0.101169
0.101001
0.100813
0.100604
0.100373
0.100122
0.0998512
0.099557
0.0992404
0.0989068
0.0985548
0.0981821
0.0977895
0.0973734
0.0969356
0.0964734
0.095984
0.095467
0.0949179
0.0943369
0.0937196
0.0930632
0.0923646
0.0916194
0.0908251
0.089976
0.0890705
0.0881031
0.0870755
0.0859756
0.0847964
0.0835608
0.0823453
0.0815217
0.102801
0.102776
0.102724
0.102649
0.102554
0.10244
0.102306
0.102153
0.101982
0.101791
0.101582
0.101354
0.101107
0.100838
0.100549
0.100242
0.0999183
0.099574
0.09921
0.0988227
0.0984136
0.0979799
0.0975187
0.0970296
0.0965079
0.0959536
0.0953623
0.0947311
0.0940567
0.0933346
0.0925622
0.0917338
0.0908473
0.0898972
0.0888834
0.0877919
0.0866228
0.0853931
0.0841814
0.0833668
0.10395
0.103924
0.103874
0.103804
0.103716
0.103612
0.10349
0.103352
0.103196
0.103025
0.102835
0.102628
0.102404
0.102159
0.101894
0.101613
0.101315
0.100997
0.100659
0.100298
0.0999152
0.0995075
0.0990723
0.0986086
0.098112
0.0975823
0.097015
0.0964071
0.0957553
0.095055
0.0943033
0.0934946
0.0926267
0.0916944
0.0906943
0.089613
0.0884524
0.087228
0.0860188
0.0852108
0.105144
0.105117
0.105069
0.105004
0.104923
0.104828
0.104718
0.104593
0.104454
0.104299
0.104128
0.103941
0.103738
0.103515
0.103272
0.103014
0.10274
0.102445
0.102131
0.101794
0.101435
0.101051
0.100639
0.100199
0.099725
0.0992179
0.0986728
0.0980865
0.0974559
0.096776
0.0960441
0.0952544
0.0944048
0.0934922
0.0925044
0.0914338
0.0902819
0.0890628
0.0878547
0.0870514
0.106377
0.10635
0.106305
0.106244
0.106171
0.106085
0.105986
0.105874
0.105749
0.105609
0.105456
0.105287
0.105102
0.104899
0.104677
0.10444
0.104186
0.103912
0.10362
0.103304
0.102966
0.102604
0.102213
0.101794
0.101341
0.100855
0.10033
0.0997643
0.0991535
0.0984931
0.0977801
0.0970088
0.0961769
0.0952813
0.0943081
0.0932498
0.0921075
0.0908942
0.0896851
0.0888856
0.107645
0.107618
0.107575
0.10752
0.107453
0.107375
0.107287
0.107186
0.107074
0.106949
0.106811
0.106658
0.10649
0.106304
0.1061
0.105881
0.105646
0.105392
0.105118
0.104822
0.104503
0.10416
0.103788
0.103388
0.102955
0.102488
0.101982
0.101435
0.100843
0.100201
0.0995067
0.0987534
0.0979391
0.0970601
0.0961019
0.0950569
0.0939253
0.0927191
0.0915116
0.0907123
0.10894
0.108914
0.108874
0.108823
0.108762
0.108692
0.108613
0.108523
0.108422
0.10831
0.108185
0.108047
0.107894
0.107723
0.107535
0.107332
0.107113
0.106876
0.106619
0.106339
0.106038
0.105712
0.105358
0.104976
0.10456
0.104111
0.103623
0.103094
0.10252
0.101896
0.101219
0.100484
0.0996876
0.0988252
0.0978825
0.0968514
0.0957317
0.0945337
0.0933293
0.0925282
0.110255
0.11023
0.110192
0.110146
0.110091
0.110028
0.109956
0.109875
0.109785
0.109684
0.109571
0.109446
0.109305
0.109148
0.108973
0.108785
0.10858
0.108357
0.108115
0.107851
0.107565
0.107255
0.106917
0.10655
0.106151
0.105718
0.105247
0.104735
0.104179
0.103572
0.102914
0.102197
0.101419
0.100573
0.0996461
0.0986296
0.0975228
0.0963346
0.0951343
0.0943299
0.111581
0.111557
0.111522
0.111479
0.111429
0.111372
0.111308
0.111235
0.111153
0.111062
0.110959
0.110845
0.110715
0.110569
0.110407
0.110231
0.110039
0.109829
0.1096
0.10935
0.109078
0.108782
0.108458
0.108107
0.107723
0.107306
0.106851
0.106355
0.105816
0.105227
0.104586
0.103887
0.103131
0.102301
0.101389
0.100388
0.0992951
0.098118
0.0969232
0.0961144
0.112909
0.112886
0.112854
0.112815
0.11277
0.112718
0.11266
0.112594
0.11252
0.112436
0.112342
0.112237
0.112117
0.111981
0.111829
0.111664
0.111484
0.111285
0.111069
0.11083
0.110571
0.110288
0.109978
0.109641
0.109271
0.108869
0.10843
0.10795
0.107427
0.106855
0.106232
0.105553
0.104815
0.104002
0.103107
0.102123
0.101045
0.0998807
0.0986926
0.0978785
0.114233
0.114211
0.114181
0.114145
0.114104
0.114057
0.114004
0.113944
0.113876
0.1138
0.113714
0.113616
0.113504
0.113377
0.113235
0.113079
0.112909
0.112721
0.112515
0.112288
0.11204
0.111769
0.111472
0.111148
0.110792
0.110404
0.10998
0.109516
0.10901
0.108455
0.10785
0.10719
0.10647
0.105675
0.104798
0.103831
0.10277
0.10162
0.10044
0.0996197
0.115544
0.115523
0.115496
0.115463
0.115425
0.115383
0.115334
0.115279
0.115217
0.115147
0.115066
0.114976
0.114871
0.114752
0.114618
0.114471
0.114309
0.114131
0.113935
0.113718
0.113481
0.113222
0.112937
0.112625
0.112283
0.111909
0.111499
0.111051
0.110561
0.110024