/*--------------------------------*- C++ -*----------------------------------*\
| =========                 |                                                 |
| \\      /  F ield         | OpenFOAM: The Open Source CFD Toolbox           |
|  \\    /   O peration     | Version:  5.x                                   |
|   \\  /    A nd           | Web:      www.OpenFOAM.org                      |
|    \\/     M anipulation  |                                                 |
\*---------------------------------------------------------------------------*/
FoamFile
{
    version     2.0;
    format      ascii;
    class       volScalarField;
    location    "200";
    object      p;
}
// * * * * * * * * * * * * * * * * * * * * * * * * * * * * * * * * * * * * * //

dimensions      [0 2 -2 0 0 0 0];

internalField   nonuniform List<scalar> 
26000
(
-0.000706092
-0.862722
-1.16356
-1.35692
-1.52083
-1.62903
-1.66302
-1.64139
-1.57882
-1.50059
-1.42029
-1.34542
-1.28262
-1.21586
-1.15865
-1.11061
-1.06398
-1.01673
-0.969808
-0.922593
-0.875621
-0.829688
-0.784108
-0.739686
-0.695367
-0.65082
-0.606983
-0.564426
-0.523596
-0.483516
-0.444499
-0.406207
-0.368627
-0.331661
-0.295156
-0.25933
-0.224094
-0.189447
-0.15437
-0.117275
1.36982
0.730761
0.121073
-0.45894
-0.952665
-1.31361
-1.52527
-1.61588
-1.61734
-1.56696
-1.49295
-1.41349
-1.34112
-1.26727
-1.20118
-1.14633
-1.09624
-1.04743
-0.999255
-0.950636
-0.90256
-0.85495
-0.807528
-0.761059
-0.714598
-0.668408
-0.623068
-0.578985
-0.536659
-0.495335
-0.45514
-0.4157
-0.377019
-0.339
-0.301532
-0.264761
-0.228648
-0.193025
-0.157087
-0.120391
1.38759
1.04514
0.65114
0.197703
-0.291066
-0.75412
-1.1274
-1.37702
-1.50258
-1.52944
-1.49563
-1.43108
-1.36361
-1.28871
-1.2185
-1.15867
-1.10671
-1.05684
-1.00858
-0.960258
-0.911967
-0.864421
-0.81655
-0.769651
-0.723021
-0.676538
-0.630848
-0.585848
-0.542582
-0.500401
-0.45935
-0.419174
-0.379711
-0.341076
-0.30298
-0.265729
-0.229135
-0.192979
-0.156728
-0.119702
1.43177
1.15032
0.853864
0.53926
0.174863
-0.231937
-0.640964
-0.992039
-1.24438
-1.38369
-1.43047
-1.41146
-1.36761
-1.30237
-1.23379
-1.1715
-1.11748
-1.06643
-1.0179
-0.969704
-0.921351
-0.873782
-0.825571
-0.778141
-0.731022
-0.68411
-0.638057
-0.59238
-0.548268
-0.505219
-0.463332
-0.42242
-0.382239
-0.342977
-0.30428
-0.266504
-0.229398
-0.192697
-0.156008
-0.118713
1.44647
1.25101
1.01804
0.765744
0.482885
0.160995
-0.201299
-0.56668
-0.890803
-1.1295
-1.27258
-1.32493
-1.32948
-1.29249
-1.23669
-1.17709
-1.12304
-1.07133
-1.02268
-0.974948
-0.926959
-0.879844
-0.831775
-0.784221
-0.736893
-0.689704
-0.643429
-0.59728
-0.552506
-0.508729
-0.466131
-0.424585
-0.383778
-0.343961
-0.304711
-0.266408
-0.228782
-0.191576
-0.154505
-0.116913
1.42935
1.29073
1.12085
0.923275
0.695488
0.439985
0.143303
-0.182396
-0.51414
-0.806694
-1.02938
-1.1601
-1.23038
-1.24241
-1.21585
-1.16893
-1.12013
-1.07014
-1.02235
-0.975697
-0.928618
-0.882479
-0.835046
-0.787812
-0.740628
-0.693387
-0.647065
-0.600661
-0.555444
-0.511106
-0.467896
-0.425771
-0.384381
-0.344042
-0.304271
-0.265478
-0.227387
-0.189726
-0.152304
-0.114387
1.40616
1.29711
1.16972
1.02007
0.839943
0.635464
0.396212
0.125411
-0.173243
-0.471017
-0.735448
-0.928725
-1.06478
-1.13866
-1.15805
-1.13743
-1.10287
-1.05975
-1.0153
-0.970953
-0.925513
-0.880966
-0.83476
-0.788391
-0.741817
-0.694856
-0.64875
-0.60234
-0.55693
-0.512232
-0.468549
-0.425949
-0.384061
-0.343265
-0.303025
-0.263792
-0.225275
-0.187196
-0.149463
-0.111194
1.38278
1.29161
1.1896
1.07368
0.932566
0.769723
0.576817
0.356481
0.104598
-0.166801
-0.434521
-0.661368
-0.845872
-0.979606
-1.05413
-1.07257
-1.06319
-1.03485
-0.998379
-0.958891
-0.916465
-0.874446
-0.83024
-0.785391
-0.739989
-0.693735
-0.648183
-0.602059
-0.55673
-0.511906
-0.467934
-0.425006
-0.38273
-0.341566
-0.300931
-0.261322
-0.222429
-0.183975
-0.14598
-0.107341
1.35966
1.28091
1.1949
1.10076
0.988094
0.858192
0.702783
0.524113
0.317212
0.0844082
-0.161052
-0.393066
-0.600277
-0.777936
-0.904429
-0.968436
-0.993494
-0.988923
-0.967033
-0.936689
-0.89975
-0.861748
-0.820585
-0.778064
-0.734527
-0.689535
-0.644982
-0.599507
-0.55458
-0.509908
-0.465872
-0.422796
-0.380265
-0.338847
-0.297909
-0.258005
-0.218802
-0.180025
-0.14183
-0.102813
1.33726
1.26761
1.19254
1.11257
1.01933
0.91368
0.787733
0.642516
0.473791
0.279659
0.0673734
-0.1504
-0.356804
-0.555936
-0.720237
-0.827126
-0.890318
-0.916596
-0.916292
-0.900642
-0.872897
-0.841211
-0.804627
-0.765525
-0.724727
-0.681683
-0.638679
-0.5943
-0.550152
-0.505964
-0.462139
-0.419136
-0.376523
-0.33499
-0.293857
-0.253754
-0.214322
-0.175289
-0.136968
-0.0975772
1.31588
1.2531
1.18601
1.11575
1.03573
0.947075
0.843113
0.723898
0.585924
0.425567
0.247456
0.0533509
-0.136949
-0.336922
-0.519861
-0.658961
-0.756758
-0.816252
-0.842599
-0.847082
-0.833006
-0.810755
-0.780916
-0.746712
-0.709758
-0.669518
-0.628743
-0.586011
-0.543094
-0.499775
-0.456484
-0.413821
-0.371337
-0.329862
-0.288671
-0.248484
-0.208918
-0.169705
-0.131344
-0.0915985
1.29567
1.2382
1.17717
1.11395
1.04327
0.966484
0.878399
0.778662
0.664536
0.531761
0.384032
0.215921
0.0484875
-0.138319
-0.322198
-0.479056
-0.602086
-0.69146
-0.745671
-0.773823
-0.777575
-0.768219
-0.747802
-0.720395
-0.68868
-0.652308
-0.61458
-0.574157
-0.533009
-0.491011
-0.448629
-0.406616
-0.364513
-0.323302
-0.282222
-0.242088
-0.202501
-0.163198
-0.124896
-0.0848306
1.27667
1.22344
1.16714
1.10926
1.04548
0.977223
0.900587
0.815162
0.718999
0.607842
0.485086
0.34138
0.197607
0.0308575
-0.141608
-0.302479
-0.438867
-0.550318
-0.629263
-0.681407
-0.705535
-0.712012
-0.703768
-0.685328
-0.660512
-0.629279
-0.595568
-0.55824
-0.519483
-0.479327
-0.438287
-0.397285
-0.355859
-0.315153
-0.274378
-0.234459
-0.194986
-0.155699
-0.117561
-0.0772291
1.2589
1.20911
1.15663
1.10294
1.04447
0.982589
0.914385
0.839505
0.756711
0.662084
0.558909
0.436322
0.313905
0.168756
0.0140943
-0.14055
-0.279312
-0.403126
-0.500393
-0.573448
-0.618009
-0.641838
-0.647934
-0.640538
-0.624364
-0.599688
-0.571091
-0.537751
-0.502096
-0.464372
-0.425163
-0.38558
-0.345167
-0.305238
-0.264996
-0.225476
-0.186271
-0.147126
-0.109266
-0.0687413
1.24232
1.19542
1.14611
1.09582
1.04157
0.984644
0.922846
0.855882
0.783077
0.700997
0.612789
0.507654
0.403135
0.278093
0.142895
0.000476365
-0.13259
-0.259648
-0.367457
-0.45587
-0.518363
-0.559119
-0.580517
-0.585671
-0.579675
-0.562966
-0.540628
-0.512238
-0.480465
-0.445819
-0.408982
-0.371264
-0.33224
-0.293397
-0.253942
-0.215029
-0.176264
-0.137406
-0.0999473
-0.0593216
1.2269
1.18247
1.13586
1.0884
1.03764
0.984705
0.927942
0.867095
0.801883
0.729384
0.652525
0.561442
0.471336
0.363604
0.246679
0.118916
-0.00376827
-0.127127
-0.238189
-0.33546
-0.411533
-0.466908
-0.503035
-0.521266
-0.526437
-0.518869
-0.503844
-0.481365
-0.454273
-0.423384
-0.389491
-0.354116
-0.31689
-0.279464
-0.241079
-0.203001
-0.16487
-0.126455
-0.0895325
-0.0489185
1.21258
1.17032
1.12605
1.08105
1.03324
0.983624
0.930949
0.874982
0.815693
0.750633
0.682441
0.602545
0.523833
0.430414
0.329298
0.216234
0.105761
-0.00958127
-0.118273
-0.218382
-0.302915
-0.369304
-0.418155
-0.448827
-0.46535
-0.467621
-0.460716
-0.444986
-0.42333
-0.396867
-0.366501
-0.333961
-0.298959
-0.263305
-0.226291
-0.189295
-0.152006
-0.114207
-0.0779624
-0.0374907
1.19931
1.15898
1.11681
1.07398
1.02874
0.981967
0.932711
0.880754
0.826219
0.767066
0.705612
0.634632
0.564893
0.483076
0.395049
0.295442
0.19713
0.0918025
-0.010901
-0.109177
-0.197304
-0.270613
-0.329214
-0.370647
-0.397813
-0.409981
-0.411598
-0.403212
-0.387618
-0.366182
-0.339896
-0.310674
-0.278324
-0.244801
-0.209473
-0.173818
-0.137591
-0.100595
-0.0651723
-0.0249916
1.18704
1.14847
1.10821
1.06734
1.02438
0.980112
0.933791
0.885223
0.834613
0.780264
0.724176
0.660365
0.59774
0.52527
0.447858
0.359969
0.272746
0.177811
0.0829296
-0.0104365
-0.0982132
-0.174608
-0.239611
-0.289424
-0.325759
-0.347204
-0.357249
-0.35646
-0.347338
-0.3314
-0.309673
-0.284211
-0.254924
-0.223884
-0.190556
-0.156507
-0.121568
-0.0855711
-0.0511171
-0.0113906
1.17573
1.13877
1.10027
1.06121
1.02033
0.978306
0.934567
0.888935
0.84165
0.791306
0.739603
0.681639
0.624737
0.559826
0.49097
0.413002
0.335422
0.250307
0.163799
0.076964
-0.0076971
-0.0840644
-0.152294
-0.207836
-0.251366
-0.280893
-0.298768
-0.305437
-0.302918
-0.292758
-0.275949
-0.254612
-0.228754
-0.200525
-0.169501
-0.137315
-0.103891
-0.0690905
-0.0357528
0.00334524
1.16531
1.12987
1.09301
1.05564
1.01668
0.976713
0.935291
0.892256
0.847859
0.800929
0.752904
0.69979
0.647581
0.588839
0.52691
0.457243
0.387842
0.311524
0.233125
0.15338
0.0734833
-0.00062876
-0.0694389
-0.12818
-0.17675
-0.212782
-0.237479
-0.251083
-0.254997
-0.250672
-0.238981
-0.222027
-0.199896
-0.174762
-0.146316
-0.116239
-0.0845466
-0.0511373
-0.0190611
0.0192305
1.15575
1.12174
1.08644
1.05067
1.0135
0.97544
0.936132
0.895435
0.853596
0.809638
0.764769
0.715747
0.66747
0.613831
0.557573
0.494832
0.432293
0.36363
0.292672
0.21988
0.14553
0.0750524
0.0076239
-0.0521667
-0.103716
-0.144527
-0.174775
-0.194472
-0.204365
-0.205697
-0.199143
-0.186701
-0.168499
-0.146681
-0.121048
-0.0932952
-0.0635378
-0.0317061
-0.00102653
0.0362789
1.147
1.11436
1.08054
1.0463
1.01083
0.974553
0.937201
0.898642
0.859109
0.817782
0.77568
0.730167
0.68525
0.635898
0.584355
0.527415
0.470634
0.408541
0.344189
0.277852
0.209218
0.143076
0.0783171
0.0191339
-0.033625
-0.0775369
-0.111966
-0.136714
-0.1519
-0.158493
-0.156916
-0.148973
-0.134796
-0.116439
-0.0937994
-0.0685516
-0.0409058
-0.0108228
0.018338
0.0544807
1.13901
1.10769
1.0753
1.04253
1.00867
0.974091
0.938568
0.901987
0.864562
0.825604
0.78597
0.743515
0.701523
0.655831
0.608271
0.556226
0.504306
0.447823
0.389244
0.328711
0.26559
0.203993
0.142649
0.0852234
0.0326418
-0.0128893
-0.050168
-0.0788457
-0.0984897
-0.109773
-0.112843
-0.109245
-0.0990754
-0.0842388
-0.0647076
-0.0421004
-0.0167097
0.011477
0.0390132
0.0738242
1.13174
1.1017
1.07069
1.03935
1.00703
0.974069
0.940273
0.90554
0.870067
0.833269
0.79587
0.756117
0.716718
0.674197
0.63006
0.582186
0.534406
0.482721
0.429155
0.373751
0.315731
0.258605
0.200998
0.146048
0.0946413
0.0486948
0.00975872
-0.0217477
-0.044955
-0.0602478
-0.0675045
-0.0679731
-0.0616825
-0.0503381
-0.0339605
-0.0140777
0.00895183
0.0351217
0.0609458
0.0942712
1.12514
1.09635
1.06668
1.03673
1.0059
0.974491
0.942335
0.909343
0.875695
0.840886
0.805538
0.768204
0.731136
0.691404
0.650253
0.605973
0.56176
0.514202
0.464984
0.414079
0.36069
0.307769
0.253942
0.201845
0.152272
0.106825
0.0672215
0.0338879
0.0080019
-0.0105713
-0.0214683
-0.025627
-0.0229885
-0.0150219
-0.00177133
0.0153594
0.0359642
0.060029
0.084078
0.115783
1.11917
1.09161
1.06325
1.03465
1.00526
0.975347
0.944759
0.913418
0.881486
0.848527
0.81508
0.779935
0.744989
0.707743
0.669235
0.628085
0.586982
0.543004
0.497571
0.450611
0.40136
0.352313
0.30213
0.253028
0.205674
0.161373
0.121873
0.0875641
0.0598162
0.0386885
0.0247405
0.017334
0.0166232
0.0213979
0.0316141
0.0460197
0.0641813
0.0860882
0.108323
0.138296
1.1138
1.08744
1.06036
1.03308
1.0051
0.976622
0.947539
0.91777
0.887465
0.856239
0.824565
0.791421
0.758424
0.723419
0.687281
0.648889
0.610531
0.569683
0.527563
0.484067
0.438499
0.392967
0.346211
0.300084
0.255136
0.212398
0.17357
0.138974
0.110075
0.0870698
0.0706617
0.0604836
0.0567816
0.0586104
0.0659434
0.0777021
0.0934466
0.11318
0.13359
0.161745
1.10898
1.08379
1.05797
1.032
1.00537
0.978294
0.950661
0.922396
0.89364
0.864047
0.834041
0.80274
0.771551
0.738584
0.704594
0.668659
0.632748
0.594662
0.555462
0.515026
0.472732
0.430375
0.38678
0.343516
0.301012
0.260083
0.22232
0.187969
0.158507
0.134223
0.115914
0.103442
0.0971365
0.0963067
0.100955
0.110188
0.123581
0.141159
0.159758
0.186038
1.10467
1.08065
1.05606
1.03136
1.00605
0.980339
0.954106
0.927284
0.900008
0.871962
0.843531
0.813942
0.784441
0.753346
0.72132
0.687591
0.653885
0.618259
0.581654
0.543938
0.504558
0.465063
0.424363
0.383785
0.34368
0.304671
0.268229
0.234511
0.204957
0.179903
0.1602
0.145896
0.137381
0.134204
0.136401
0.143269
0.15441
0.169883
0.18671
0.211084
1.10084
1.07797
1.05459
1.03113
1.00712
0.982727
0.957848
0.932415
0.906556
0.879982
0.853046
0.825056
0.79714
0.767775
0.737559
0.70583
0.674128
0.640712
0.60643
0.571149
0.534373
0.497458
0.459389
0.421314
0.383503
0.346436
0.31146
0.278644
0.249359
0.223955
0.203301
0.18759
0.177247
0.172041
0.172041
0.176731
0.185749
0.199197
0.214312
0.236777
1.09745
1.07571
1.05352
1.03129
1.00854
0.985428
0.96186
0.937765
0.913269
0.888097
0.862585
0.836097
0.809674
0.781921
0.753384
0.723481
0.693614
0.662199
0.630012
0.596924
0.562484
0.5279
0.492226
0.456458
0.420817
0.385657
0.352208
0.320467
0.291716
0.266298
0.245067
0.228325
0.216514
0.209592
0.20766
0.210376
0.217424
0.228951
0.242434
0.263013
1.09447
1.07384
1.05283
1.0318
1.01028
0.988412
0.966114
0.943309
0.920123
0.896293
0.872139
0.847066
0.822057
0.795812
0.768842
0.740617
0.712443
0.682853
0.652569
0.621469
0.589135
0.556666
0.523165
0.489526
0.455914
0.422589
0.390678
0.36011
0.332081
0.306906
0.285404
0.267955
0.255003
0.246664
0.24306
0.244014
0.249259
0.258985
0.270931
0.289669
1.09186
1.07233
1.05247
1.03262
1.01229
0.991643
0.970576
0.949018
0.927093
0.904547
0.881692
0.857959
0.834292
0.809463
0.783962
0.757289
0.730683
0.702768
0.674223
0.644939
0.614515
0.58397
0.552454
0.520764
0.489045
0.457464
0.427066
0.397717
0.370531
0.345791
0.324263
0.306381
0.292578
0.283095
0.278071
0.277476
0.281095
0.289157
0.299668
0.316633
1.08959
1.07115
1.05241
1.03371
1.01456
0.995087
0.975214
0.954859
0.93415
0.912836
0.891224
0.868762
0.84637
0.822879
0.798758
0.773528
0.748383
0.722013
0.695068
0.66745
0.638767
0.609983
0.580277
0.550384
0.520418
0.490483
0.461551
0.433431
0.407162
0.382994
0.361631
0.343541
0.329134
0.318752
0.312543
0.310607
0.312775
0.319317
0.328507
0.343775
1.08762
1.07025
1.05262
1.03504
1.01703
0.998708
0.979992
0.960799
0.941261
0.921128
0.900708
0.879455
0.858279
0.836051
0.813233
0.78935
0.765572
0.740634
0.715167
0.689087
0.661999
0.63483
0.606789
0.578545
0.550209
0.521818
0.49429
0.467384
0.442072
0.418567
0.397515
0.379401
0.3646
0.353536
0.346356
0.343275
0.344167
0.349334
0.35732
0.370986
1.08592
1.0696
1.05306
1.03658
1.01968
1.00247
0.984872
0.966801
0.94839
0.929392
0.910113
0.890013
0.869997
0.848967
0.82738
0.804759
0.782264
0.75866
0.734565
0.709907
0.684288
0.658613
0.632099
0.605382
0.578557
0.551609
0.525419
0.499696
0.475354
0.452573
0.431938
0.413943
0.398923
0.387364
0.379407
0.375362
0.375142
0.379079
0.385977
0.398137
1.08446
1.06917
1.0537
1.03829
1.02246
1.00633
0.989814
0.972825
0.9555
0.937592
0.919409
0.900408
0.881499
0.861605
0.841185
0.819749
0.798461
0.776104
0.753287
0.729954
0.705692
0.681399
0.6563
0.630994
0.605573
0.579975
0.555052
0.53047
0.507095
0.485072
0.464932
0.447166
0.432068
0.420177
0.411615
0.406772
0.405593
0.408439
0.414362
0.425124
1.0832
1.06893
1.05449
1.04012
1.02533
1.01025
0.994779
0.978832
0.962553
0.945691
0.928557
0.910606
0.892752
0.873938
0.854624
0.834306
0.814156
0.79297
0.771349
0.74925
0.726249
0.70324
0.67945
0.655455
0.631344
0.607008
0.583281
0.559795
0.537371
0.516123
0.496529
0.479077
0.464018
0.451928
0.44291
0.437416
0.43542
0.437305
0.442361
0.451825
1.08211
1.06883
1.05541
1.04205
1.02827
1.01419
0.999725
0.984782
0.969506
0.953647
0.937518
0.920567
0.90372
0.885933
0.867669
0.848407
0.829333
0.809248
0.788748
0.767806
0.74598
0.724167
0.701597
0.678821
0.655934
0.63278
0.610185
0.587745
0.566248
0.545777
0.526764
0.509688
0.49476
0.482583
0.473236
0.467223
0.464541
0.465585
0.469872
0.478144
1.08117
1.06885
1.05641
1.04402
1.03121
1.0181
1.00461
0.990629
0.976316
0.961416
0.946248
0.930252
0.914365
0.897554
0.880287
0.862026
0.84397
0.824923
0.805476
0.785622
0.764895
0.744202
0.72277
0.701133
0.679389
0.657348
0.635821
0.61438
0.593779
0.57408
0.555666
0.539014
0.52429
0.512115
0.502546
0.49613
0.492876
0.493194
0.496801
0.503973
1.08034
1.06895
1.05745
1.046
1.03413
1.02195
1.00939
0.996328
0.982935
0.968951
0.9547
0.939614
0.924641
0.90876
0.892442
0.87513
0.858038
0.83997
0.821519
0.802688
0.782993
0.763352
0.742986
0.722417
0.701746
0.680748
0.660234
0.639745
0.62001
0.601067
0.583265
0.567069
0.552605
0.540506
0.530807
0.524086
0.520365
0.520055
0.523063
0.529231
1.07959
1.0691
1.05851
1.04796
1.03698
1.02569
1.01401
1.00183
0.989313
0.976204
0.962825
0.948608
0.934506
0.91951
0.904094
0.887683
0.871504
0.854365
0.836853
0.818987
0.800266
0.781614
0.762252
0.742686
0.723023
0.703011
0.683455
0.663875
0.644974
0.626773
0.609585
0.593866
0.579706
0.567743
0.55799
0.551049
0.546949
0.546102
0.548581
0.553828
1.07889
1.06926
1.05954
1.04984
1.03971
1.02927
1.01843
1.00708
0.995402
0.983125
0.970578
0.957189
0.943914
0.92976
0.9152
0.899646
0.884333
0.868076
0.851454
0.834501
0.8167
0.798981
0.780565
0.761945
0.743236
0.724155
0.705507
0.686796
0.668699
0.651221
0.634645
0.619418
0.605595
0.593817
0.584076
0.576987
0.572586
0.57128
0.573291
0.577698
1.07822
1.06941
1.06051
1.05162
1.04229
1.03264
1.0226
1.01205
1.00115
0.989668
0.97791
0.965309
0.952819
0.939465
0.925718
0.910982
0.896491
0.881071
0.865295
0.849206
0.832279
0.815441
0.797921
0.780198
0.762388
0.744196
0.726411
0.708531
0.691208
0.674434
0.658466
0.643737
0.630278
0.618724
0.609048
0.601873
0.597237
0.595542
0.597135
0.60077
1.07756
1.06951
1.06138
1.05325
1.04467
1.03577
1.02648
1.01667
1.00653
0.995786
0.984775
0.972922
0.961176
0.948583
0.935609
0.921653
0.907943
0.89332
0.878348
0.86308
0.846984
0.830983
0.814315
0.797443
0.780489
0.763141
0.746181
0.729098
0.712519
0.696431
0.681063
0.666838
0.653763
0.642463
0.632898
0.625689
0.620878
0.618854
0.62007
0.623003
1.07687
1.06955
1.06213
1.05469
1.04682
1.03862
1.03002
1.02092
1.01147
1.00144
0.991132
0.97999
0.968946
0.957076
0.944837
0.931627
0.918657
0.904794
0.89059
0.876102
0.860802
0.845595
0.829739
0.81368
0.79754
0.781002
0.764829
0.748512
0.732652
0.71723
0.702455
0.688736
0.67606
0.66504
0.655623
0.648424
0.643486
0.641185
0.642062
0.64435
1.07615
1.06948
1.06273
1.05594
1.0487
1.04115
1.0332
1.02475
1.01596
1.00659
0.996945
0.986478
0.976097
0.964913
0.953371
0.940876
0.928609
0.915473
0.902001
0.888257
0.873719
0.859271
0.844192
0.82891
0.81355
0.797789
0.782369
0.766789
0.751624
0.736853
0.722663
0.709449
0.697184
0.686464
0.677227
0.670076
0.665054
0.662521
0.663087
0.66479
1.07538
1.06931
1.06316
1.05695
1.0503
1.04334
1.03599
1.02815
1.01996
1.01121
1.00219
0.992361
0.982606
0.972073
0.961191
0.94938
0.937782
0.925343
0.912571
0.899537
0.885732
0.872009
0.857677
0.843141
0.828526
0.813516
0.798818
0.78395
0.769459
0.755321
0.741708
0.728997
0.717153
0.706749
0.697719
0.690646
0.685577
0.682853
0.683134
0.684302
1.07456
1.06903
1.0634
1.05771
1.0516
1.04518
1.03837
1.03109
1.02347
1.01529
1.00685
0.997626
0.988457
0.978542
0.968287
0.957134
0.946171
0.934398
0.922299
0.909944
0.896846
0.883817
0.870203
0.856386
0.842488
0.8282
0.814197
0.800019
0.786182
0.772663
0.759618
0.747408
0.735991
0.725915
0.717114
0.710148
0.705063
0.702183
0.702201
0.702887
1.07368
1.06862
1.06346
1.05823
1.0526
1.04665
1.04034
1.03357
1.02647
1.01883
1.01093
1.00227
0.993653
0.984322
0.974661
0.964139
0.95378
0.942648
0.931194
0.91949
0.907073
0.894711
0.88179
0.868666
0.855455
0.841866
0.828534
0.815026
0.801824
0.788909
0.776426
0.764711
0.753726
0.743988
0.735435
0.728597
0.723526
0.720521
0.720295
0.720546
1.07274
1.06809
1.06334
1.05851
1.05329
1.04778
1.04191
1.0356
1.02897
1.02183
1.01443
1.00631
0.998207
0.989429
0.98033
0.970413
0.960629
0.950111
0.939277
0.928198
0.916441
0.904719
0.892465
0.880008
0.86746
0.854547
0.841863
0.829006
0.816423
0.804099
0.792167
0.780945
0.770394
0.761002
0.75271
0.746021
0.740987
0.737885
0.737434
0.737299
1.07174
1.06744
1.06305
1.05856
1.0537
1.04857
1.04309
1.0372
1.031
1.02432
1.01738
1.00977
1.00215
0.993894
0.985326
0.975988
0.966751
0.956823
0.946584
0.936103
0.924982
0.913874
0.902264
0.89045
0.878541
0.866285
0.854226
0.842002
0.830022
0.818276
0.806886
0.796151
0.786034
0.776993
0.768974
0.76245
0.757474
0.754301
0.753642
0.753167
1.0707
1.06669
1.0626
1.0584
1.05386
1.04905
1.04393
1.03841
1.03261
1.02635
1.01983
1.01269
1.00552
0.997759
0.989693
0.980908
0.97219
0.962826
0.953157
0.943248
0.932739
0.922221
0.911231
0.900039
0.888746
0.877125
0.865673
0.854063
0.842669
0.831487
0.82063
0.810374
0.800691
0.792003
0.784267
0.777921
0.773021
0.769801
0.768952
0.768184
1.06962
1.06586
1.06201
1.05805
1.05379
1.04927
1.04446
1.03928
1.03383
1.02795
1.02183
1.01513
1.00838
1.00108
0.993483
0.985224
0.976997
0.96817
0.959047
0.949685
0.939764
0.929813
0.91942
0.908827
0.898128
0.887122
0.876256
0.865241
0.854418
0.843785
0.833449
0.823665
0.814412
0.806078
0.798631
0.792475
0.787667
0.784421
0.783401
0.782384
1.06851
1.06495
1.0613
1.05756
1.05353
1.04926
1.04472
1.03985
1.03472
1.02919
1.02343
1.01714
1.01077
1.00391
0.996755
0.988993
0.981231
0.972916
0.964312
0.955473
0.946116
0.936708
0.926889
0.916873
0.906746
0.896332
0.886033
0.875595
0.865324
0.855225
0.845398
0.836077
0.827248
0.819268
0.812113
0.806155
0.801454
0.798202
0.797032
0.795811
1.06737
1.06398
1.06051
1.05694
1.05311
1.04907
1.04478
1.04017
1.03533
1.03012
1.02469
1.01878
1.01277
1.00631
0.999574
0.99228
0.984958
0.977127
0.969018
0.960676
0.951858
0.94297
0.9337
0.924237
0.91466
0.904817
0.895064
0.885182
0.875445
0.865864
0.856532
0.847663
0.839251
0.831621
0.824761
0.819008
0.814425
0.811186
0.809888
0.808502
1.06622
1.06297
1.05965
1.05623
1.05258
1.04874
1.04466
1.0403
1.03571
1.0308
1.02567
1.02011
1.01444
1.00835
1.002
0.99515
0.988242
0.980869
0.973227
0.965359
0.957052
0.94866
0.939915
0.930982
0.921932
0.912635
0.903407
0.89406
0.884839
0.875759
0.866906
0.858477
0.850474
0.843191
0.836623
0.831081
0.826627
0.823418
0.822013
0.820504
1.06506
1.06194
1.05874
1.05546
1.05197
1.0483
1.04442
1.04028
1.03593
1.03128
1.02643
1.02119
1.01583
1.0101
1.00411
0.997664
0.991146
0.984203
0.977004
0.969583
0.961761
0.953841
0.945595
0.937167
0.92862
0.919846
0.911122
0.902288
0.893563
0.884964
0.876576
0.868574
0.860968
0.854026
0.84775
0.842421
0.838104
0.834943
0.833453
0.831857
1.0639
1.06089
1.05781
1.05466
1.05131
1.04779
1.04409
1.04015
1.03602
1.03162
1.02702
1.02208
1.01701
1.01159
1.00594
0.999881
0.993729
0.98719
0.980406
0.973408
0.966043
0.958571
0.950798
0.942849
0.934782
0.926506
0.918262
0.909919
0.90167
0.893535
0.885592
0.878004
0.870785
0.864175
0.858186
0.853074
0.848903
0.845803
0.84425
0.842603
1.06274
1.05984
1.05688
1.05383
1.05062
1.04725
1.04371
1.03996
1.03602
1.03185
1.02749
1.02281
1.01801
1.0129
1.00756
1.00185
0.996042
0.989881
0.983487
0.976886
0.969951
0.962903
0.955576
0.948082
0.94047
0.932666
0.924882
0.917006
0.909211
0.90152
0.894006
0.886816
0.87997
0.873686
0.86798
0.863084
0.859066
0.856041
0.854447
0.852778
1.0616
1.0588
1.05594
1.05301
1.04992
1.04669
1.0433
1.03972
1.03597
1.032
1.02786
1.02343
1.01888
1.01405
1.009
1.00362
0.998131
0.992321
0.986292
0.980065
0.973533
0.966883
0.959978
0.952913
0.945732
0.938375
0.931027
0.923595
0.916233
0.908966
0.901862
0.895056
0.88857
0.882602
0.877173
0.872495
0.868633
0.865695
0.864081
0.86242
1.06048
1.05778
1.05502
1.05219
1.04922
1.04612
1.04288
1.03946
1.03588
1.03211
1.02817
1.02397
1.01965
1.01508
1.0103
1.00522
1.00003
0.99455
0.988862
0.982985
0.976829
0.970555
0.964046
0.957384
0.950611
0.943676
0.936741
0.929731
0.92278
0.915917
0.909205
0.902766
0.896626
0.890964
0.885806
0.881344
0.877644
0.874803
0.873189
0.87156
1.05937
1.05677
1.05412
1.05139
1.04854
1.04557
1.04246
1.03919
1.03578
1.03218
1.02843
1.02445
1.02035
1.01601
1.01149
1.00669
1.00178
0.996599
0.991228
0.985679
0.979875
0.973953
0.967815
0.961533
0.955144
0.948606
0.942063
0.93545
0.928891
0.922411
0.916072
0.909984
0.904177
0.898811
0.893917
0.88967
0.886133
0.883399
0.881802
0.880229
1.05828
1.05579
1.05323
1.05061
1.04787
1.04502
1.04204
1.03892
1.03566
1.03223
1.02866
1.02488
1.02098
1.01686
1.01257
1.00804
1.00339
0.998493
0.993418
0.988175
0.982699
0.977108
0.971318
0.965393
0.959364
0.9532
0.947026
0.940789
0.9346
0.928484
0.922499
0.916747
0.911257
0.906178
0.90154
0.897504
0.894133
0.891514
0.889951
0.88845
1.05722
1.05483
1.05237
1.04985
1.04722
1.04449
1.04164
1.03865
1.03554
1.03227
1.02886
1.02527
1.02156
1.01765
1.01358
1.00929
1.00488
1.00025
0.995453
0.990496
0.985326
0.980045
0.97458
0.968989
0.9633
0.957487
0.95166
0.945778
0.939938
0.934167
0.928518
0.923085
0.9179
0.913096
0.908707
0.904878
0.901674
0.899176
0.89766
0.89625
1.05619
1.05389
1.05153
1.04912
1.0466
1.04398
1.04125
1.03839
1.03541
1.03229
1.02905
1.02563
1.0221
1.01838
1.01452
1.01045
1.00627
1.00189
0.997349
0.99266
0.987776
0.982784
0.977625
0.972346
0.966976
0.961492
0.955993
0.950444
0.944934
0.939489
0.934159
0.92903
0.924134
0.919594
0.915445
0.91182
0.908782
0.90641
0.904955
0.903646
1.05518
1.05298
1.05072
1.0484
1.04599
1.04348
1.04086
1.03813
1.03529
1.03231
1.02922
1.02596
1.0226
1.01907
1.0154
1.01154
1.00757
1.00342
0.999121
0.994683
0.990065
0.985345
0.98047
0.975484
0.970413
0.965238
0.960047
0.954812
0.949613
0.944475
0.939447
0.934606
0.929986
0.925699
0.921781
0.918355
0.915483
0.91324
0.911856
0.910659
1.0542
1.05209
1.04993
1.04771
1.04539
1.04299
1.04049
1.03788
1.03516
1.03232
1.02937
1.02627
1.02307
1.01971
1.01622
1.01255
1.00879
1.00485
1.00078
0.996576
0.992207
0.987741
0.983133
0.978421
0.97363
0.968744
0.963842
0.958903
0.953996
0.949148
0.944405
0.939838
0.93548
0.931434
0.927739
0.924506
0.921797
0.919686
0.918381
0.917303
1.05324
1.05123
1.04916
1.04703
1.04482
1.04252
1.04013
1.03763
1.03504
1.03233
1.02951
1.02655
1.0235
1.02031
1.01699
1.01351
1.00993
1.0062
1.00233
0.998349
0.994213
0.989985
0.985626
0.981172
0.976643
0.972028
0.967398
0.962735
0.958104
0.95353
0.949055
0.944747
0.940637
0.936822
0.93334
0.930294
0.927746
0.925766
0.924547
0.923594
1.05232
1.05039
1.04841
1.04638
1.04426
1.04206
1.03978
1.03739
1.03491
1.03232
1.02963
1.02682
1.02391
1.02087
1.01771
1.0144
1.011
1.00746
1.00379
1.00001
0.996094
0.992089
0.987963
0.983749
0.979466
0.975106
0.97073
0.966327
0.961955
0.957637
0.953416
0.949352
0.945478
0.941883
0.938603
0.935738
0.933346
0.931498
0.930368
0.929541
1.05142
1.04958
1.04769
1.04574
1.04372
1.04162
1.03943
1.03715
1.03478
1.03231
1.02974
1.02706
1.02429
1.02139
1.01838
1.01524
1.012
1.00864
1.00516
1.00157
0.997857
0.994061
0.990154
0.986165
0.982112
0.97799
0.973853
0.969694
0.965564
0.961488
0.957505
0.953672
0.950021
0.946633
0.943548
0.940856
0.938615
0.936896
0.935858
0.935158
1.05056
1.0488
1.04699
1.04513
1.04319
1.04118
1.03909
1.03691
1.03465
1.03229
1.02984
1.02728
1.02464
1.02188
1.01901
1.01602
1.01294
1.00974
1.00644
1.00303
0.99951
0.99591
0.992208
0.98843
0.984592
0.980693
0.97678
0.972849
0.968947
0.965098
0.961339
0.957722
0.954281
0.951091
0.948189
0.945663
0.943568
0.941974
0.941028
0.940452
1.04972
1.04804
1.04632
1.04453
1.04268
1.04076
1.03876
1.03668
1.03452
1.03227
1.02993
1.02748
1.02496
1.02233
1.0196
1.01675
1.01383
1.01078
1.00764
1.0044
1.00106
0.997643
0.994132
0.990552
0.986917
0.983225
0.979522
0.975804
0.972116
0.96848
0.964931
0.961518
0.958275
0.95527
0.952543
0.950173
0.948218
0.946744
0.94589
0.945432
1.04892
1.04731
1.04566
1.04396
1.04219
1.04035
1.03844
1.03645
1.03439
1.03223
1.03
1.02767
1.02526
1.02275
1.02015
1.01744
1.01465
1.01175
1.00876
1.00569
1.00251
0.999267
0.995936
0.99254
0.989094
0.985597
0.98209
0.978572
0.975083
0.971647
0.968294
0.965073
0.962015
0.959185
0.956622
0.954401
0.952577
0.951219
0.950452
0.950106
1.04814
1.04661
1.04503
1.0434
1.04171
1.03995
1.03813
1.03623
1.03425
1.03219
1.03006
1.02784
1.02554
1.02314
1.02066
1.01808
1.01542
1.01266
1.00982
1.00689
1.00387
1.00079
0.997624
0.994401
0.991132
0.987817
0.984494
0.981162
0.97786
0.97461
0.971441
0.968399
0.965515
0.962849
0.960439
0.958357
0.956658
0.955407
0.954724
0.954481
1.0474
1.04593
1.04443
1.04287
1.04125
1.03957
1.03782
1.036
1.03412
1.03215
1.03011
1.02799
1.02579
1.0235
1.02114
1.01867
1.01614
1.01351
1.0108
1.00802
1.00514
1.00221
0.999204
0.996142
0.993038
0.989893
0.986741
0.983584
0.980456
0.97738
0.974383
0.971509
0.968786
0.966273
0.964006
0.962055
0.960471
0.959321
0.958715
0.958564
1.04668
1.04529
1.04384
1.04235
1.04081
1.0392
1.03753
1.03579
1.03398
1.0321
1.03015
1.02812
1.02602
1.02384
1.02158
1.01923
1.01681
1.01431
1.01172
1.00907
1.00633
1.00354
1.00068
0.99777
0.99482
0.991833
0.988841
0.985846
0.982881
0.979966
0.97713
0.974411
0.971839
0.969468
0.967335
0.965504
0.964027
0.962969
0.962433
0.962361
1.046
1.04467
1.04329
1.04186
1.04038
1.03884
1.03724
1.03558
1.03385
1.03205
1.03019
1.02824
1.02624
1.02415
1.02199
1.01974
1.01744
1.01504
1.01258
1.01005
1.00744
1.00478
1.00206
0.999289
0.996483
0.993644
0.990801
0.987957
0.985143
0.982379
0.979691
0.977117
0.974685
0.972446
0.970435
0.968715
0.967336
0.96636
0.965886
0.965881
1.04535
1.04407
1.04275
1.04139
1.03997
1.03849
1.03696
1.03537
1.03372
1.03199
1.03021
1.02835
1.02643
1.02443
1.02237
1.02022
1.01802
1.01573
1.01338
1.01096
1.00848
1.00594
1.00334
1.00071
0.998033
0.995332
0.992627
0.989924
0.98725
0.984626
0.982076
0.979636
0.977333
0.975215
0.973317
0.971698
0.970407
0.969504
0.969083
0.969131
1.04473
1.04351
1.04224
1.04094
1.03958
1.03816
1.0367
1.03517
1.03358
1.03194
1.03023
1.02845
1.02661
1.0247
1.02272
1.02067
1.01856
1.01637
1.01412
1.01181
1.00944
1.00702
1.00454
1.00202
0.999476
0.996902
0.994326
0.991754
0.98921
0.986715
0.984293
0.981976
0.979791
0.977785
0.97599
0.974462
0.973249
0.97241
0.972033
0.972119
1.04414
1.04297
1.04176
1.04051
1.0392
1.03785
1.03644
1.03498
1.03346
1.03188
1.03024
1.02853
1.02677
1.02494
1.02304
1.02108
1.01906
1.01696
1.01481
1.0126
1.01033
1.00802
1.00565
1.00325
1.00082
0.998361
0.995904
0.993452
0.991029
0.988654
0.986349
0.984145
0.98207
0.980164
0.978463
0.977017
0.975873
0.975087
0.974744
0.974854
1.04359
1.04246
1.0413
1.0401
1.03885
1.03755
1.0362
1.03479
1.03333
1.03181
1.03024
1.0286
1.02691
1.02516
1.02334
1.02146
1.01952
1.01751