/*--------------------------------*- C++ -*----------------------------------*\
| =========                 |                                                 |
| \\      /  F ield         | OpenFOAM: The Open Source CFD Toolbox           |
|  \\    /   O peration     | Version:  5.x                                   |
|   \\  /    A nd           | Web:      www.OpenFOAM.org                      |
|    \\/     M anipulation  |                                                 |
\*---------------------------------------------------------------------------*/
FoamFile
{
    version     2.0;
    format      ascii;
    class       surfaceScalarField;
    location    "200";
    object      phi;
}
// * * * * * * * * * * * * * * * * * * * * * * * * * * * * * * * * * * * * * //

dimensions      [0 3 -1 0 0 0 0];

internalField   nonuniform List<scalar> 
51690
(
0.000699996
-1.94518e-05
-0.000680319
0.000601609
9.83848e-05
0.000473308
0.000128308
0.00035541
0.000117903
0.000264815
9.06036e-05
0.000199386
6.54318e-05
0.000158638
4.07495e-05
0.000133073
2.5563e-05
0.000120682
1.23881e-05
0.000116185
4.49431e-06
0.00011677
-5.87789e-07
0.00012246
-5.69061e-06
0.000120504
1.95452e-06
0.000125683
-5.18065e-06
0.000131499
-5.81858e-06
0.000136674
-5.1765e-06
0.000141656
-4.9842e-06
0.000147663
-6.00778e-06
0.000154824
-7.16197e-06
0.000162644
-7.82073e-06
0.000171928
-9.28395e-06
0.000181613
-9.68513e-06
0.000192211
-1.05983e-05
0.000203726
-1.1515e-05
0.000215971
-1.22441e-05
0.000228842
-1.28708e-05
0.0002412
-1.23566e-05
0.000253094
-1.18927e-05
0.00026426
-1.11656e-05
0.000274854
-1.05921e-05
0.000284856
-1.00004e-05
0.000294108
-9.25142e-06
0.000302809
-8.6991e-06
0.00031057
-7.75965e-06
0.000317605
-7.03219e-06
0.000323399
-5.79426e-06
0.000328119
-4.71677e-06
0.000331199
-3.08092e-06
0.000330765
4.38445e-07
-1.27625e-06
0.00033204
0.000476846
-9.46084e-05
-0.000401697
0.00053685
3.83785e-05
0.000551946
0.000113212
0.000521795
0.000148057
0.000465812
0.000146588
0.000401371
0.000129875
0.000341906
0.000100215
0.000294835
7.26346e-05
0.000261446
4.57769e-05
0.000240746
2.51933e-05
0.000228993
1.11645e-05
0.000224831
-1.52963e-06
0.000221428
5.35698e-06
0.000221621
-5.37429e-06
0.00022347
-7.66852e-06
0.000227327
-9.03422e-06
0.000231729
-9.38651e-06
0.000237139
-1.14184e-05
0.000243299
-1.33224e-05
0.000249799
-1.43208e-05
0.000257607
-1.70924e-05
0.00026581
-1.78874e-05
0.000274707
-1.94943e-05
0.000284028
-2.08356e-05
0.000293466
-2.16811e-05
0.000303783
-2.31864e-05
0.000314358
-2.29302e-05
0.000325328
-2.28609e-05
0.000336206
-2.2041e-05
0.000346931
-2.13154e-05
0.000357464
-2.05306e-05
0.000367468
-1.92532e-05
0.000377093
-1.83215e-05
0.000385858
-1.65228e-05
0.000393955
-1.5125e-05
0.000400831
-1.26695e-05
0.000406561
-1.04424e-05
0.000410686
-7.20611e-06
0.000411391
-2.61243e-07
-4.68618e-06
0.0004148
0.0003997
-0.000144884
-0.000349429
0.0004552
-1.71238e-05
0.000503324
6.50877e-05
0.000528592
0.000122788
0.00052437
0.000150812
0.00049499
0.000159255
0.000449753
0.000145454
0.00040073
0.000121658
0.000355398
9.11092e-05
0.000320376
6.02148e-05
0.000295457
3.60835e-05
0.000282014
1.19129e-05
0.000272627
1.47438e-05
0.000267969
-7.16999e-07
0.000266527
-6.22728e-06
0.000269229
-1.17366e-05
0.000272796
-1.2954e-05
0.000278025
-1.66485e-05
0.0002844
-1.96974e-05
0.000291328
-2.12488e-05
0.000299933
-2.5698e-05
0.000308921
-2.68762e-05
0.00031886
-2.94331e-05
0.000329445
-3.14203e-05
0.000340189
-3.24262e-05
0.000351779
-3.47763e-05
0.000363393
-3.45446e-05
0.000375445
-3.4912e-05
0.000387441
-3.40377e-05
0.000399292
-3.31658e-05
0.000410967
-3.22056e-05
0.000422029
-3.03152e-05
0.000432682
-2.89742e-05
0.00044233
-2.61715e-05
0.000451243
-2.40367e-05
0.00045886
-2.0288e-05
0.000465362
-1.6943e-05
0.000470239
-1.20843e-05
0.000471774
-1.79471e-06
-7.63237e-06
0.000474719
0.000357453
-0.00018532
-0.000317021
0.000402046
-6.17181e-05
0.000448482
1.86508e-05
0.000490408
8.08612e-05
0.000517427
0.000123792
0.000523752
0.000152932
0.000508455
0.00016075
0.000477555
0.000152559
0.000438157
0.000130507
0.000400157
9.82156e-05
0.000367792
6.84488e-05
0.000346063
3.36408e-05
0.000329547
3.12595e-05
0.000319032
9.79777e-06
0.000313264
-4.59906e-07
0.000313492
-1.19643e-05
0.000315445
-1.49077e-05
0.000319796
-2.10002e-05
0.000325697
-2.55978e-05
0.000332403
-2.79548e-05
0.000341071
-3.43657e-05
0.000350212
-3.60175e-05
0.000360466
-3.96869e-05
0.0003715
-4.24535e-05
0.000382792
-4.3717e-05
0.00039505
-4.70339e-05
0.00040738
-4.68732e-05
0.000420266
-4.77968e-05
0.00043317
-4.69401e-05
0.000445951
-4.5945e-05
0.000458559
-4.48122e-05
0.00047051
-4.22647e-05
0.000482023
-4.04851e-05
0.000492449
-3.65948e-05
0.000502069
-3.36547e-05
0.00051028
-2.8497e-05
0.000517259
-2.39198e-05
0.000522477
-1.73018e-05
0.000524343
-3.65737e-06
-1.05366e-05
0.000527248
0.000328295
-0.000219294
-0.000294322
0.000366498
-9.99222e-05
0.000407628
-2.24802e-05
0.000450256
3.82331e-05
0.000488467
8.55806e-05
0.000516082
0.000125317
0.000527333
0.0001495
0.000520865
0.000159028
0.000498856
0.000152517
0.000468881
0.000128191
0.000436929
0.000100401
0.00041109
5.94793e-05
0.000388865
5.34838e-05
0.000372412
2.62512e-05
0.000361583
1.03686e-05
0.000358398
-8.77915e-06
0.000357911
-1.44216e-05
0.000360688
-2.37771e-05
0.00036554
-3.04501e-05
0.000371508
-3.39224e-05
0.000379786
-4.26441e-05
0.000388704
-4.49361e-05
0.000398938
-4.99202e-05
0.000410134
-5.365e-05
0.000421727
-5.53107e-05
0.000434425
-5.97315e-05
0.000447231
-5.96801e-05
0.000460671
-6.12369e-05
0.000474212
-6.04813e-05
0.000487708
-5.94417e-05
0.000501108
-5.82126e-05
0.000513893
-5.50501e-05
0.000526277
-5.28687e-05
0.000537568
-4.7886e-05
0.000548024
-4.41108e-05
0.000556975
-3.74495e-05
0.000564562
-3.15066e-05
0.000570238
-2.29792e-05
0.000572442
-5.86117e-06
-1.35692e-05
0.000575474
0.000308735
-0.000248946
-0.000279084
0.000342395
-0.000133583
0.000379036
-5.91218e-05
0.00041852
-1.25084e-06
0.000458109
4.59904e-05
0.000494332
8.90943e-05
0.000521891
0.000121941
0.000536083
0.000144836
0.000534641
0.00015396
0.000520102
0.000142729
0.00049681
0.000123693
0.000473095
8.31944e-05
0.000449105
7.74736e-05
0.000428437
4.6919e-05
0.000412801
2.60048e-05
0.000405704
-1.68237e-06
0.000402128
-1.08459e-05
0.00040276
-2.44088e-05
0.000406136
-3.3826e-05
0.000411043
-3.88295e-05
0.000418662
-5.02626e-05
0.00042712
-5.33939e-05
0.000437104
-5.99036e-05
0.000448236
-6.4782e-05
0.000459914
-6.69881e-05
0.000472854
-7.26709e-05
0.00048597
-7.27944e-05
0.0004998
-7.50662e-05
0.000513808
-7.44882e-05
0.000527845
-7.34776e-05
0.000541855
-7.22203e-05
0.000555284
-6.84782e-05
0.00056835
-6.59326e-05
0.000580334
-5.98682e-05
0.000591488
-5.52631e-05
0.00060111
-4.70691e-05
0.000609307
-3.97014e-05
0.000615496
-2.91671e-05
0.000618099
-8.46153e-06
-1.67998e-05
0.00062133
0.000295301
-0.000275712
-0.000268535
0.000325598
-0.00016388
0.000358732
-9.2257e-05
0.000394894
-3.74126e-05
0.000432711
8.17296e-06
0.000470742
5.10638e-05
0.000505759
8.69236e-05
0.000533177
0.000117417
0.000549035
0.000138102
0.000551652
0.000140112
0.000542238
0.000133106
0.000526649
9.87834e-05
0.000506272
9.78507e-05
0.000485064
6.81274e-05
0.000466457
4.46123e-05
0.000455849
8.92585e-06
0.000448976
-3.97272e-06
0.000447043
-2.24762e-05
0.000448546
-3.53284e-05
0.000452078
-4.23616e-05
0.000458788
-5.69722e-05
0.000466582
-6.11876e-05
0.000476138
-6.94597e-05
0.000487039
-7.56836e-05
0.000498644
-7.85935e-05
0.00051169
-8.57169e-05
0.000525001
-8.61054e-05
0.000539121
-8.91868e-05
0.000553495
-8.88632e-05
0.000567973
-8.79555e-05
0.00058249
-8.67378e-05
0.000596464
-8.24523e-05
0.000610105
-7.95747e-05
0.000622665
-7.24287e-05
0.000634393
-6.69919e-05
0.000644564
-5.72406e-05
0.00065327
-4.8408e-05
0.000659902
-3.58e-05
0.000662862
-1.14225e-05
-2.02329e-05
0.000666294
0.00028614
-0.000300516
-0.000261336
0.000313962
-0.000191702
0.000344359
-0.000122654
0.000377665
-7.07184e-05
0.000413093
-2.72551e-05
0.000450193
1.39633e-05
0.000487396
4.97207e-05
0.000521471
8.33417e-05
0.000548888
0.000110686
0.000566013
0.000122986
0.000571517
0.000127602
0.000567716
0.000102586
0.000555868
0.000109698
0.000538805
8.51906e-05
0.000520588
6.28299e-05
0.00050811
2.14045e-05
0.000498548
5.58942e-06
0.000494023
-1.79513e-05
0.000493399
-3.47035e-05
0.000495287
-4.4249e-05
0.000500864
-6.25498e-05
0.000507824
-6.81473e-05
0.000516816
-7.84514e-05
0.000527364
-8.62314e-05
0.000538779
-9.00074e-05
0.00055182
-9.87573e-05
0.00056523
-9.95148e-05
0.000579558
-0.000103514
0.00059422
-0.000103523
0.000609058
-0.000102793
0.000624008
-0.000101686
0.000638456
-9.68987e-05
0.000652607
-9.37243e-05
0.000665673
-8.54927e-05
0.000677897
-7.92143e-05
0.000688527
-6.78687e-05
0.000697649
-5.75279e-05
0.00070463
-4.27794e-05
0.000707855
-1.46452e-05
-2.38134e-05
0.000711437
0.000280225
-0.000323999
-0.000256741
0.000306275
-0.000217753
0.000334585
-0.000150964
0.000365557
-0.00010169
0.000398724
-6.04218e-05
0.000434066
-2.13792e-05
0.000470958
1.28281e-05
0.000507436
4.68643e-05
0.000541145
7.69761e-05
0.000568334
9.5797e-05
0.00058656
0.000109376
0.000595155
9.39906e-05
0.000594671
0.000110183
0.000585883
9.39787e-05
0.000572099
7.66146e-05
0.000560516
3.29878e-05
0.000549942
1.61638e-05
0.000543524
-1.15332e-05
0.000540917
-3.20965e-05
0.000541072
-4.44038e-05
0.000545359
-6.68366e-05
0.00055134
-7.41279e-05
0.000559647
-8.67589e-05
0.000569741
-9.63248e-05
0.000580872
-0.000101139
0.000593825
-0.00011171
0.000607262
-0.000112952
0.000621736
-0.000117989
0.000636625
-0.000118413
0.000651765
-0.000117933
0.000667087
-0.000117009
0.000681947
-0.000111759
0.00069655
-0.000108328
0.000710067
-9.90107e-05
0.000722734
-9.18816e-05
0.000733761
-7.88976e-05
0.000743228
-6.69953e-05
0.000750476
-5.00289e-05
0.00075387
-1.80401e-05
-2.74734e-05
0.000757529
0.00027688
-0.000346631
-0.000254249
0.000301711
-0.000242584
0.000328503
-0.000177756
0.00035766
-0.000130847
0.000388911
-9.16731e-05
0.00042243
-5.48983e-05
0.000458071
-2.28128e-05
0.000494708
1.02273e-05
0.000531064
4.06198e-05
0.000564108
6.27534e-05
0.000591444
8.20404e-05
0.000610695
7.47398e-05
0.000621853
9.90245e-05
0.000623673
9.21589e-05
0.000617801
8.24872e-05
0.000610316
4.04729e-05
0.000601292
2.51881e-05
0.00059455
-4.79114e-06
0.000590742
-2.82886e-05
0.000589456
-4.31177e-05
0.000592475
-6.9855e-05
0.000597419
-7.90726e-05
0.000604968
-9.43074e-05
0.000614537
-0.000105893
0.000625319
-0.000111921
0.000638119
-0.000124509
0.000651525
-0.000126357
0.000666094
-0.000132557
0.000681165
-0.000133484
0.000696562
-0.000133328
0.00071221
-0.000132656
0.000727435
-0.000126983
0.00074244
-0.000123331
0.000756358
-0.000112927
0.000769418
-0.00010494
0.000780794
-9.02716e-05
0.00079055
-7.67495e-05
0.000797998
-5.74751e-05
0.000801475
-2.15147e-05
-3.11323e-05
0.000805135
0.000275638
-0.000368758
-0.000253511
0.000299679
-0.000266625
0.00032543
-0.000203507
0.000353261
-0.000158678
0.000383013
-0.000121425
0.000414941
-8.6826e-05
0.000449135
-5.70072e-05
0.000484969
-2.56066e-05
0.000521892
3.69644e-06
0.000557726
2.69198e-05
0.000590664
4.9102e-05
0.00061777
4.76343e-05
0.000638914
7.78796e-05
0.000651542
7.95327e-05
0.000655535
7.84938e-05
0.000654858
4.11489e-05
0.000650201
2.98456e-05
0.000645359
5.08934e-08
0.00064183
-2.47596e-05
0.000639949
-4.12371e-05
0.000642065
-7.19711e-05
0.000646118
-8.31256e-05
0.000652938
-0.000101127
0.000661969
-0.000114924
0.000672376
-0.000122329
0.000684988
-0.000137122
0.000698327
-0.000139695
0.000712956
-0.000147187
0.000728177
-0.000148705
0.000743796
-0.000148948
0.000759735
-0.000148595
0.000775288
-0.000142537
0.000790658
-0.000138702
0.000804935
-0.000127204
0.000818343
-0.000118349
0.000830019
-0.000101948
0.000840015
-8.67463e-05
0.000847605
-6.50663e-05
0.00085109
-2.5001e-05
-3.47226e-05
0.000854679
0.000276169
-0.00039065
-0.000254277
0.000299753
-0.000290209
0.000324853
-0.000228607
0.000351789
-0.000185615
0.00038046
-0.000150096
0.000411141
-0.000117507
0.000444032
-8.9898e-05
0.000478792
-6.03668e-05
0.000515299
-3.28105e-05
0.000552067
-9.84814e-06
0.000587952
1.32168e-05
0.000620154
1.54326e-05
0.00064876
4.92745e-05
0.000670766
5.75262e-05
0.0006848
6.44596e-05
0.000692463
3.34858e-05
0.000694477
2.78308e-05
0.000693887
6.40833e-07
0.000692592
-2.34651e-05
0.000691524
-4.01694e-05
0.000693557
-7.40035e-05
0.00069718
-8.67486e-05
0.000703493
-0.00010744
0.000712088
-0.000123519
0.000722168
-0.000132408
0.000734603
-0.000149556
0.000747872
-0.000152964
0.000762552
-0.000161866
0.000777907
-0.000164059
0.000793731
-0.000164771
0.000809938
-0.0001648
0.000825792
-0.00015839
0.000841495
-0.000154404
0.000856097
-0.000141804
0.000869817
-0.000132067
0.00088175
-0.000113879
0.000891938
-9.69326e-05
0.000899617
-7.2744e-05
0.000903044
-2.84246e-05
-3.81703e-05
0.000906493
0.000278236
-0.000412519
-0.000256367
0.000301628
-0.000313602
0.000326389
-0.000253367
0.000352793
-0.000212019
0.000380766
-0.00017807
0.000410571
-0.000147312
0.000442444
-0.000121771
0.000476208
-9.41304e-05
0.000511965
-6.85681e-05
0.000548724
-4.66064e-05
0.000585866
-2.39259e-05
0.000621019
-1.97196e-05
0.000654599
1.56943e-05
0.000683798
2.83272e-05
0.000706677
4.15793e-05
0.000722862
1.73005e-05
0.000732812
1.78813e-05
0.000738361
-4.90859e-06
0.00074129
-2.63935e-05
0.000742779
-4.16591e-05
0.000745965
-7.7189e-05
0.000749995
-9.07791e-05
0.000756301
-0.000113746
0.000764748
-0.000131966
0.000774667
-0.000142328
0.000787013
-0.000161902
0.000800266
-0.000166217
0.000815021
-0.000176622
0.000830524
-0.000179562
0.000846556
-0.000180804
0.000863025
-0.000181269
0.000879166
-0.000174532
0.000895184
-0.000170422
0.000910086
-0.000156707
0.000924087
-0.000146069
0.000936241
-0.000126034
0.000946578
-0.00010727
0.000954297
-8.04644e-05
0.000957603
-3.17319e-05
-4.1415e-05
0.000960846
0.000281663
-0.000434539
-0.000259643
0.000305078
-0.000337017
0.000329754
-0.000278043
0.000355925
-0.00023819
0.000383532
-0.000205677
0.00041281
-0.00017659
0.000443996
-0.000152957
0.000476999
-0.000127133
0.000512028
-0.000103597
0.000548417
-8.29949e-05
0.000585905
-6.14145e-05
0.000622593
-5.6408e-05
0.000659186
-2.0898e-05
0.000693381
-5.86836e-06
0.000723235
1.17256e-05
0.000747076
-6.5405e-06
0.00076508
-1.23276e-07
0.000777803
-1.76308e-05
0.000786515
-3.51059e-05
0.000792272
-4.74163e-05
0.000798071
-8.29882e-05
0.000803663
-9.63708e-05
0.000810757
-0.000120841
0.000819576
-0.000140785
0.000829673
-0.000152425
0.000842133
-0.000174362
0.000855503
-0.000179586
0.000870418
-0.000191537
0.000886123
-0.000195267
0.000902397
-0.000197077
0.000919145
-0.000198016
0.00093558
-0.000190966
0.000951906
-0.000186747
0.000967094
-0.000171893
0.000981355
-0.000160329
0.000993701
-0.000138378
0.00100415
-0.000117717
0.00101186
-8.81753e-05
0.00101499
-3.48589e-05
-4.43879e-05
0.00101797
0.000286319
-0.000456856
-0.000264002
0.000309936
-0.000360634
0.000334736
-0.000302844
0.000360922
-0.000264376
0.000388444
-0.000233198
0.000417505
-0.000205652
0.000448326
-0.000183778
0.000480859
-0.000159667
0.000515353
-0.000138091
0.000551349
-0.00011899
0.000588803
-9.88684e-05
0.000626231
-9.38366e-05
0.000664516
-5.91828e-05
0.000701926
-4.3279e-05
0.000736824
-2.3172e-05
0.00076691
-3.66264e-05
0.000792206
-2.54202e-05
0.000812218
-3.76424e-05
0.000827562
-5.04499e-05
0.000838901
-5.87557e-05
0.00084871
-9.27972e-05
0.000857154
-0.000104815
0.000866062
-0.000129748
0.000876002
-0.000150725
0.000886811
-0.000163233
0.000899735
-0.000187286
0.000913466
-0.000193317
0.000928701
-0.000206772
0.00094472
-0.000211286
0.000961312
-0.000213669
0.000978389
-0.000215094
0.000995149
-0.000207726
0.0010118
-0.000203396
0.00102727
-0.000187371
0.00104179
-0.00017484
0.0010543
-0.000150897
0.00106484
-0.000128249
0.0010725
-9.58434e-05
0.0010754
-3.77622e-05
-4.7034e-05
0.00107805
0.000292105
-0.000479595
-0.000269366
0.000316076
-0.000384605
0.000341178
-0.000327946
0.000367586
-0.000290784
0.000395257
-0.000260869
0.000424369
-0.000234763
0.000455116
-0.000214525
0.000487474
-0.000192025
0.000521692
-0.000172309
0.000557444
-0.000154742
0.000594803
-0.000136228
0.000632618
-0.000131651
0.000671838
-9.84032e-05
0.000711232
-8.26729e-05
0.000749566
-6.15061e-05
0.000784403
-7.14639e-05
0.000815761
-5.67777e-05
0.000842464
-6.43458e-05
0.000864538
-7.25242e-05
0.000882167
-7.63847e-05
0.000897053
-0.000107684
0.000909545
-0.000117307
0.000921367
-0.00014157
0.000933338
-0.000162696
0.000945567
-0.000175462
0.00095946
-0.00020118
0.000973922
-0.000207779
0.000989736
-0.000222585
0.00100625
-0.000227803
0.0010233
-0.000230711
0.0010408
-0.000232592
0.00105795
-0.000224875
0.00107496
-0.000220406
0.00109074
-0.000203157
0.00110551
-0.000189605
0.0011182
-0.000163581
0.00112879
-0.000138841
0.00113638
-0.000103431
0.00113901
-4.03903e-05
-4.92899e-05
0.00114127
0.000298946
-0.000502867
-0.000275673
0.000323403
-0.000409062
0.000348959
-0.000353501
0.000375766
-0.000317591
0.000403788
-0.000288891
0.000433177
-0.000264153
0.000464107
-0.000245455
0.000496562
-0.00022448
0.000530775
-0.000206522
0.000566505
-0.000190472
0.000603881
-0.000173604
0.000642003
-0.000169773
0.000681811
-0.000138211
0.000722454
-0.000123316
0.000763076
-0.000102128
0.000801387
-0.000109775
0.000837494
-9.28849e-05
0.000869905
-9.67573e-05
0.000898231
-0.00010085
0.000922236
-0.00010039
0.00094279
-0.000128239
0.000960227
-0.000134744
0.000975961
-0.000157303
0.000990904
-0.00017764
0.00100537
-0.000189926
0.00102086
-0.000216674
0.00103655
-0.000223467
0.00105331
-0.000239339
0.00107059
-0.000245088
0.00108828
-0.000248404
0.00110635
-0.000250657
0.00112399
-0.000242521
0.00114144
-0.000237853
0.00115759
-0.000219306
0.00117264
-0.000204654
0.0011855
-0.000176442
0.00119615
-0.000149491
0.00120364
-0.000110924
0.00120596
-4.27163e-05
-5.11077e-05
0.00120778
0.000306782
-0.000526774
-0.000282875
0.000331844
-0.000434124
0.000357988
-0.000379645
0.000385348
-0.000344952
0.000413894
-0.000317437
0.000443759
-0.000294018
0.000475094
-0.000276789
0.000507888
-0.000257275
0.000542353
-0.000240987
0.000578302
-0.000226421
0.000615885
-0.000211187
0.000654389
-0.000208277
0.000694697
-0.000178519
0.000736231
-0.000164849
0.000778427
-0.000144325
0.000819272
-0.000150621
0.000858991
-0.000132604
0.000896044
-0.00013381
0.000929822
-0.000134628
0.000959812
-0.00013038
0.000986143
-0.00015457
0.00100902
-0.000157621
0.00102941
-0.000177696
0.00104817
-0.000196395
0.00106569
-0.000207443
0.00108348
-0.000234471
0.00110098
-0.000240965
0.00111913
-0.00025749
0.00113754
-0.000263495
0.00115615
-0.000267015
0.00117498
-0.000269488
0.00119328
-0.000260814
0.00121127
-0.000255842
0.00122786
-0.000235892
0.00124324
-0.000220034
0.0012563
-0.000189505
0.00126701
-0.000160201
0.0012744
-0.000118305
0.00127639
-4.4708e-05
-5.2433e-05
0.00127772
0.000315564
-0.000551408
-0.00029093
0.00034134
-0.0004599
0.000368194
-0.000406499
0.000396246
-0.000373004
0.00042547
-0.000346661
0.000455982
-0.00032453
0.000487916
-0.000308724
0.000521264
-0.000290623
0.000556215
-0.000275937
0.000592619
-0.000262825
0.000630626
-0.000249194
0.000669664
-0.000247315
0.000710535
-0.000219391
0.000752846
-0.00020716
0.000796244
-0.000187723
0.000839016
-0.000193392
0.000881492
-0.000175081
0.000922243
-0.000174561
0.000960595
-0.000172982
0.000995908
-0.000165693
0.00102775
-0.000186414
0.00105617
-0.000186036
0.00108165
-0.000203175
0.00110484
-0.000219591
0.00112613
-0.00022873
0.00114692
-0.000255261
0.00116685
-0.000260898
0.00118692
-0.00027756
0.00120687
-0.000283449
0.00122674
-0.000286884
0.0012466
-0.000289349
0.00126575
-0.00027996
0.00128443
-0.000274526
0.00130157
-0.000253032
0.00131736
-0.000235825
0.00133068
-0.000202826
0.00134148
-0.000171001
0.00134876
-0.000125585
0.00135042
-4.6362e-05
-5.32305e-05
0.00135121
0.000325255
-0.000576857
-0.000299806
0.000351845
-0.00048649
0.000379521
-0.000434175
0.00040839
-0.000401873
0.00043843
-0.0003767
0.000469744
-0.000355844
0.00050245
-0.00034143
0.000536544
-0.000324717
0.000572189
-0.000311582
0.000609267
-0.000299903
0.000647917
-0.000287844
0.000687671
-0.000287069
0.000729247
-0.000260967
0.000772371
-0.000250284
0.000816833
-0.000232185
0.000861196
-0.000237755
0.000905864
-0.000219749
0.000949583
-0.00021828
0.000991719
-0.000215118
0.00103162
-0.000205589
0.00106849
-0.000223284
0.00110223
-0.000219782
0.00113291
-0.000233852
0.00116092
-0.000247596
0.00118651
-0.000254325
0.00121089
-0.000279646
0.00123387
-0.000283869
0.0012564
-0.00030009
0.00127837
-0.000305418
0.00129988
-0.000308398
0.00132108
-0.000310549
0.00134133
-0.000300207
0.0013609
-0.000294097
0.00137874
-0.000270873
0.00139505
-0.000252131
0.0014087
-0.000216477
0.00141964
-0.000181933
0.00142683
-0.00013278
0.00142815
-4.76725e-05
-5.34607e-05
0.00142838
0.000335823
-0.000603205
-0.000309475
0.000363323
-0.000513989
0.000391925
-0.000462778
0.000421727
-0.000431674
0.00045271
-0.000407683
0.000484966
-0.000388101
0.000518601
-0.000375065
0.000553611
-0.000359726
0.000590142
-0.000348113
0.000628092
-0.000337853
0.000667593
-0.000327345
0.000708254
-0.00032773
0.000750709
-0.000303422
0.000794766
-0.000294341
0.000840301
-0.00027772
0.000886115
-0.000283568
0.000932648
-0.000266282
0.000978839
-0.00026447
0.00102414
-0.000260415
0.00106794
-0.000249392
0.00110928
-0.000264623
0.00114796
-0.000258467
0.00118371
-0.000269595
0.00121664
-0.000280534
0.00124687
-0.000284555
0.00127531
-0.000308087
0.00130185
-0.000310401
0.00132736
-0.0003256
0.00135182
-0.000329881
0.0013754
-0.000331978
0.00139829
-0.000333442
0.00141994
-0.000321851
0.00144063
-0.000314787
0.00145935
-0.0002896
0.00147632
-0.000269094
0.0014904
-0.000230563
0.00150154
-0.000193068
0.00150869
-0.000139932
0.00150968
-4.86646e-05
-5.3107e-05
0.00150932
0.00034724
-0.000630533
-0.000319912
0.00037574
-0.00054249
0.000405369
-0.000492407
0.000436214
-0.000462519
0.000468258
-0.000439727
0.000501587
-0.00042143
0.000536294
-0.000409772
0.000572377
-0.000395809
0.000609965
-0.000385701
0.000648973
-0.000376861
0.000689518
-0.00036789
0.000731272
-0.000369484
0.000774794
-0.000346944
0.00081994
-0.000339488
0.000866643
-0.000324423
0.000913897
-0.000330822
0.000962151
-0.000314535
0.00101052
-0.000312835
0.00105854
-0.000308435
0.0011057
-0.000296557
0.00115098
-0.000309903
0.00119415
-0.000301633
0.00123467
-0.000310121
0.00127247
-0.00031833
0.00130746
-0.000319548
0.00134026
-0.000340883
0.00137075
-0.000340895
0.00139969
-0.000354538
0.0014271
-0.00035729
0.00145317
-0.000358045
0.00147812
-0.000358399
0.00150148
-0.000345209
0.00152355
-0.000336856
0.00154338
-0.000309427
0.00156116
-0.000286876
0.00157581
-0.000245208
0.00158723
-0.000204488
0.0015944
-0.000147093
0.0015951
-4.93624e-05
-5.21503e-05
0.00159414
0.00035948
-0.00065892
-0.000331092
0.000389071
-0.000572081
0.000419823
-0.000523159
0.000451815
-0.00049451
0.000485034
-0.000472947
0.000519558
-0.000455954
0.00055547
-0.000445685
0.000592771
-0.00043311
0.000631576
-0.000424506
0.000671811
-0.000417097
0.000713582
-0.000409661
0.000756608
-0.00041251
0.000801381
-0.000391717
0.000847793
-0.000385899
0.000895805
-0.000372435
0.000944567
-0.000379584
0.000994517
-0.000364484
0.00104491
-0.000363231
0.00109539
-0.00035891
0.00114552
-0.000346692
0.00119431
-0.000358691
0.00124152
-0.000348839
0.00128648
-0.000355084
0.00132893
-0.000360784
0.00136866
-0.000359271
0.00140595
-0.000378176
0.00144068
-0.000375624
0.0014734
-0.000387263
0.00150415
-0.000388038
0.0015331
-0.000386996
0.0015605
-0.00038579
0.0015859
-0.000370616
0.00160964
-0.000360591
0.00163081
-0.000330596
0.0016496
-0.000305672
0.00166496
-0.000260565
0.00167678
-0.00021631
0.00168403
-0.000154342
0.00168448
-4.98223e-05
-5.05962e-05
0.00168293
0.000372519
-0.000688448
-0.000342991
0.000403289
-0.000602851
0.000435259
-0.000555128
0.0004685
-0.000527751
0.000503003
-0.00050745
0.000538838
-0.00049179
0.000576084
-0.00048293
0.00061474
-0.000471766
0.000654911
-0.000464677
0.000696532
-0.000458717
0.000739698
-0.000452826
0.000784165
-0.000456977
0.000830371
-0.000437923
0.000878225
-0.000433753
0.000927709
-0.000421918
0.000978096
-0.000429971
0.0010298
-0.000416186
0.00108219
-0.000415625
0.00113498
-0.000411702
0.00118784
-0.000399549
0.00123982
-0.000410667
0.0012907
-0.00039972
0.00133976
-0.000404142
0.00138661
-0.000407643
0.00143093
-0.000403589
0.00147274
-0.000419986
0.00151185
-0.000414732
0.00154861
-0.000424026
0.00158302
-0.000422447
0.00161521
-0.000419179
0.00164538
-0.000415963
0.00167316
-0.000398398
0.00169885
-0.000386281
0.00172162
-0.000353358
0.00174163
-0.000325687
0.00175787
-0.000276801
0.00177022
-0.000228654
0.00177764
-0.000161764
0.00177792
-5.00993e-05
-4.84477e-05
0.00177577
0.000386333
-0.000719196
-0.000355586
0.000418369
-0.000634887
0.00045165
-0.000588409
0.000486241
-0.000562342
0.000522134
-0.000543343
0.000559396
-0.000529051
0.000598098
-0.000521631
0.00063824
-0.000511909
0.000679918
-0.000506355
0.000723075
-0.000501874
0.000767796
-0.000497547
0.000813868
-0.000503049
0.000861679
-0.000485733
0.000911153
-0.000483228
0.000962281
-0.000473046
0.00101443
-0.000482123
0.00106799
-0.000469743
0.00112242
-0.000470059
0.0011775
-0.000466777
0.00123295
-0.000454995
0.0012879
-0.000465624
0.00134218
-0.000453999
0.00139505
-0.000457006
0.00144605
-0.000458646
0.00149477
-0.000452314
0.00154103
-0.000466245
0.00158457
-0.000458264
0.00162552
-0.000464983
0.00166383
-0.00046075
0.00169953
-0.000454883
0.0017328
-0.000449229
0.00176327
-0.000428867
0.0017912
-0.000414217
0.00181582
-0.000377977
0.00183728
-0.000347146
0.00185458
-0.000294103
0.0018676
-0.00024167
0.0018753
-0.00016947
0.00187548
-5.02779e-05
-4.57322e-05
0.00187276
0.000400896
-0.000751245
-0.000368848
0.000434286
-0.000668277
0.000468972
-0.000623095
0.000505013
-0.000598382
0.000542402
-0.000580732
0.000581202
-0.000567852
0.000621478
-0.000561908
0.000663234
-0.000553665
0.000706556
-0.000549677
0.000751393
-0.000546711
0.000797823
-0.000543977
0.000845655
-0.000550881
0.000895239
-0.000535317
0.000946507
-0.000534496
0.000999453
-0.000525992
0.00105352
-0.000536193
0.00110907
-0.000525289
0.00116563
-0.000526623
0.00122302
-0.000524166
0.00128102
-0.000512993
0.00133885
-0.000523449
0.00139634
-0.000511494
0.00145279
-0.000513453
0.00150771
-0.00051357
0.00156065
-0.000505251
0.00161125
-0.00051684
0.00165918
-0.000506193
0.0017044
-0.000510208
0.00174676
-0.000503108
0.00178621
-0.000494332
0.00182283
-0.000485848
0.00185626
-0.000462299
0.00188672
-0.000444669
0.00191344
-0.000404705
0.00193657
-0.000370273
0.00195513
-0.000312661
0.00196897
-0.000255508
0.00197708
-0.000177573
0.00197724
-5.04377e-05
-4.24726e-05
0.00197398
0.000416179
-0.000784677
-0.000382747
0.000451013
-0.00070311
0.000487198
-0.00065928
0.000524788
-0.000635972
0.000563778
-0.000619722
0.000604227
-0.000608301
0.000646197
-0.000603878
0.000689692
-0.00059716
0.000734792
-0.000594776
0.000781449
-0.000593369
0.000829736
-0.000592264
0.00087948
-0.000600625
0.000930999
-0.000586836
0.000984229
-0.000587726
0.00103917
-0.000580929
0.00109532
-0.000592343
0.001153
-0.000582973
0.00121182
-0.000585439
0.0012716
-0.00058395
0.00133218
-0.000573568
0.00139284
-0.000584109
0.00145345
-0.000572106
0.00151333
-0.000573336
0.001572
-0.000572241
0.00162898
-0.000562228
0.00168378
-0.000571647
0.00173605
-0.000558454
0.00178556
-0.000559717
0.00183206
-0.000549615
0.00187542
-0.000537687
0.00191561
-0.000526035
0.00195224
-0.000498937
0.00198546
-0.000477889
0.00201455
-0.000433788
0.00203957
-0.000395292
0.00205958
-0.000332674
0.0020744
-0.000270334
0.00208303
-0.000186204
0.00208328
-5.06828e-05
-3.87151e-05
0.00207952
0.00043215
-0.000819576
-0.00039725
0.000468517
-0.000739478
0.000506297
-0.00069706
0.000545538
-0.000675213
0.000586236
-0.000660419
0.000628446
-0.000650512
0.000672227
-0.000647659
0.000717585
-0.000642518
0.000764594
-0.000641784
0.00081321
-0.000641985
0.0008635
-0.000642553
0.000915304
-0.000652429
0.000968917
-0.000640449
0.00102428
-0.000643084
0.00108137
-0.000638027
0.00113977
-0.000650736
0.00119975
-0.000642953
0.00126096
-0.000646647
0.00132325
-0.000646243
0.00138647
-0.000636795
0.00144999
-0.000647627
0.00151369
-0.000635805
0.00157693
-0.000636574
0.00163923
-0.000634545
0.00170011
-0.00062311
0.00175902
-0.00063055
0.00181553
-0.000614966
0.00186931
-0.000613493
0.00192001
-0.000600318
0.00196738
-0.000585059
0.0020113
-0.000569952
0.00205134
-0.00053898
0.00208755
-0.000514096
0.00211921
-0.000465448
0.00214633
-0.000422413
0.002168
-0.000354334
0.00218397
-0.000286307
0.00219326
-0.000195488
0.00219368
-5.11078e-05
-3.44974e-05
0.00218947
0.00044877
-0.000856031
-0.000412315
0.000486764
-0.000777472
0.000526238
-0.000736534
0.000567232
-0.000716208
0.000609744
-0.000702931
0.000653829
-0.000694596
0.00069954
-0.00069337
0.000746885
-0.000689864
0.000795934
-0.000690832
0.000846646
-0.000692697
0.000899083
-0.00069499
0.000953096
-0.000706442
0.00100896
-0.000696312
0.00106661
-0.000700735
0.00112604
-0.000697459
0.00118684
-0.000711536
0.00124928
-0.000705394
0.00131303
-0.000710397
0.00137797
-0.000711177
0.00144395
-0.00070278
0.0015104
-0.000714071
0.00157721
-0.000702616
0.00164378
-0.000703146
0.00170966
-0.00070042
0.00177435
-0.000687809
0.00183727
-0.000693463
0.00189796
-0.000675654
0.00195596
-0.000671501
0.00201088
-0.000655232
0.00206234
-0.000636519
0.00211011
-0.000617724
0.00215372
-0.000582593
0.00219311
-0.000553481
0.00222755
-0.00049989
0.00225698
-0.00045184
0.00228047
-0.000377829
0.00229776
-0.000303594
0.00230783
-0.000205565
0.00230855
-5.18256e-05
-2.9878e-05
0.00230393
0.000465995
-0.00089413
-0.000427896
0.000505713
-0.00081719
0.000546979
-0.0007778
0.000589833
-0.000759061
0.00063427
-0.000747368
0.000680343
-0.000740669
0.000728104
-0.000741132
0.000777563
-0.000739322
0.000828784
-0.000742053
0.000881729
-0.000745643
0.000936457
-0.000749718
0.000992825
-0.000762811
0.00105109
-0.000754581
0.0011112
-0.00076084
0.00117313
-0.000759392
0.00123651
-0.000774911
0.00130158
-0.000770464
0.00136803
-0.000776852
0.00143576
-0.0007789
0.00150463
-0.000771652
0.0015741