/*--------------------------------*- C++ -*----------------------------------*\
| =========                 |                                                 |
| \\      /  F ield         | OpenFOAM: The Open Source CFD Toolbox           |
|  \\    /   O peration     | Version:  5.x                                   |
|   \\  /    A nd           | Web:      www.OpenFOAM.org                      |
|    \\/     M anipulation  |                                                 |
\*---------------------------------------------------------------------------*/
FoamFile
{
    version     2.0;
    format      ascii;
    class       volVectorField;
    location    "200";
    object      U;
}
// * * * * * * * * * * * * * * * * * * * * * * * * * * * * * * * * * * * * * //

dimensions      [0 1 -1 0 0 0 0];

internalField   nonuniform List<vector> 
26000
(
(0.850611 1.01865e-19 2.01797)
(1.20482 3.87328e-21 1.88387)
(1.39606 1.18538e-20 1.47887)
(1.46927 -2.13801e-19 1.06408)
(1.47313 -4.96514e-19 0.733604)
(1.43531 -1.66943e-19 0.487352)
(1.40521 0 0.316713)
(1.39257 0 0.198907)
(1.39327 -5.59484e-19 0.113467)
(1.3962 1.207e-18 0.0538703)
(1.3955 -1.8149e-18 0.0106418)
(1.39498 8.57519e-19 -0.0156454)
(1.36265 -6.21721e-19 -0.041367)
(1.33515 -8.7161e-19 -0.0693172)
(1.3148 9.66169e-19 -0.0877199)
(1.29912 -2.23389e-19 -0.104519)
(1.28067 -1.01841e-18 -0.124502)
(1.2646 1.91221e-18 -0.144714)
(1.25083 -1.07283e-18 -0.163103)
(1.23796 -9.53165e-19 -0.180068)
(1.22717 -1.16363e-18 -0.194967)
(1.21555 -5.18631e-19 -0.208073)
(1.20488 -4.46991e-19 -0.220013)
(1.19548 1.69117e-18 -0.230928)
(1.18862 -3.57845e-19 -0.241107)
(1.18417 9.92497e-19 -0.250385)
(1.17648 5.81481e-19 -0.258947)
(1.16568 0 -0.266825)
(1.15228 6.76562e-19 -0.273998)
(1.1366 -2.10293e-19 -0.280488)
(1.11937 -1.45063e-18 -0.286183)
(1.10059 0 -0.291066)
(1.08119 0 -0.2952)
(1.06087 1.18381e-19 -0.298586)
(1.04019 -8.96166e-19 -0.301268)
(1.01885 6.57724e-19 -0.303226)
(0.996605 -6.89421e-19 -0.304413)
(0.974625 -5.15499e-19 -0.304913)
(0.946135 1.57397e-20 -0.304503)
(0.924769 -1.24199e-20 -0.302528)
(1.13432 -1.97269e-19 1.12827)
(1.42416 -9.21034e-20 1.3329)
(1.67781 0 1.41339)
(1.87677 1.00143e-19 1.33861)
(2.00805 1.57124e-19 1.16381)
(2.06823 0 0.944589)
(2.07349 1.37265e-19 0.729951)
(2.03938 -3.1312e-19 0.54256)
(1.98563 0 0.396396)
(1.92739 -2.09943e-19 0.288011)
(1.87275 -5.82088e-21 0.207805)
(1.8344 2.2418e-19 0.148826)
(1.79506 -2.29565e-19 0.0988378)
(1.76067 -1.65142e-19 0.0542233)
(1.73115 5.27498e-20 0.0152038)
(1.70523 -3.98897e-19 -0.0200357)
(1.67974 4.89948e-19 -0.0518992)
(1.65364 -3.56437e-19 -0.0819565)
(1.6274 5.18072e-19 -0.10957)
(1.59897 3.14261e-19 -0.135245)
(1.57142 2.92644e-19 -0.158711)
(1.5441 0 -0.179713)
(1.51702 -5.03593e-19 -0.199203)
(1.49078 -4.55683e-19 -0.217248)
(1.46426 2.1897e-19 -0.234185)
(1.43845 0 -0.249324)
(1.41285 6.77752e-21 -0.262003)
(1.3879 0 -0.273039)
(1.36339 -1.3347e-19 -0.282879)
(1.33903 -3.87167e-19 -0.291808)
(1.31511 4.64914e-19 -0.299962)
(1.2912 4.22776e-19 -0.307347)
(1.26763 0 -0.314119)
(1.24394 0 -0.320135)
(1.22037 2.89652e-19 -0.325481)
(1.19663 -5.08019e-19 -0.329995)
(1.17235 0 -0.333703)
(1.14834 -3.47564e-21 -0.336705)
(1.12 1.03429e-20 -0.339099)
(1.09527 -8.34006e-21 -0.339082)
(1.06669 1.68208e-19 0.936678)
(1.23979 5.33122e-20 1.05165)
(1.44445 4.6394e-20 1.16622)
(1.66512 0 1.22668)
(1.8729 0 1.2033)
(2.03915 -2.31753e-20 1.0985)
(2.14913 -2.40099e-20 0.941017)
(2.19848 3.55333e-21 0.758978)
(2.19767 9.89207e-20 0.584093)
(2.16332 2.42749e-19 0.433151)
(2.11157 -1.60839e-21 0.312185)
(2.06014 1.41188e-19 0.221386)
(2.00667 -2.69135e-19 0.151201)
(1.95802 6.24922e-19 0.0913357)
(1.9143 -3.06582e-19 0.0410718)
(1.87757 3.2098e-20 -0.00152444)
(1.84455 2.47715e-19 -0.0386607)
(1.81293 -4.17173e-20 -0.0734382)
(1.7825 -1.79599e-19 -0.105068)
(1.75129 -3.23145e-19 -0.134314)
(1.72129 2.16402e-19 -0.161072)
(1.69145 0 -0.184938)
(1.66167 3.68769e-19 -0.206914)
(1.6327 -5.05718e-19 -0.226737)
(1.60344 3.25322e-19 -0.244849)
(1.57492 1.11295e-20 -0.261233)
(1.54643 2.67727e-19 -0.275493)
(1.51835 -4.98545e-19 -0.288238)
(1.49086 -2.30036e-19 -0.29955)
(1.46367 1.90092e-19 -0.309801)
(1.43706 0 -0.319149)
(1.41049 -3.2334e-19 -0.327583)
(1.38427 6.90334e-20 -0.335273)
(1.35793 -6.74133e-20 -0.342051)
(1.33169 -2.24118e-19 -0.348083)
(1.30544 3.84655e-19 -0.353243)
(1.27911 -3.31971e-19 -0.357687)
(1.25354 2.78356e-19 -0.361457)
(1.22415 -2.20053e-19 -0.364385)
(1.19901 0 -0.366462)
(1.11436 -1.24576e-19 0.804868)
(1.20414 8.41608e-21 0.886887)
(1.31976 -7.62067e-20 0.974957)
(1.47134 2.52183e-20 1.05461)
(1.6502 -1.14594e-20 1.09996)
(1.83452 2.81166e-20 1.08855)
(2.00025 2.70771e-20 1.01682)
(2.12518 -7.41181e-20 0.892674)
(2.1991 -4.52944e-20 0.740848)
(2.22372 -1.36059e-19 0.584961)
(2.21016 8.07327e-20 0.443263)
(2.1763 -9.2995e-20 0.328106)
(2.12899 -1.81343e-19 0.23442)
(2.0783 1.96742e-19 0.156905)
(2.02877 1.84527e-19 0.0929594)
(1.98596 -2.20013e-19 0.0410929)
(1.94799 -1.8147e-19 -0.00268513)
(1.91285 2.01506e-19 -0.0425368)
(1.88004 -5.42424e-20 -0.0784134)
(1.84738 1.19731e-19 -0.111651)
(1.81601 1.4742e-19 -0.141867)
(1.78493 -3.06639e-19 -0.169036)
(1.7539 1.33581e-19 -0.194026)
(1.72356 -1.40518e-19 -0.216535)
(1.69298 0 -0.237147)
(1.66306 -2.24628e-19 -0.25574)
(1.63331 2.07122e-19 -0.272151)
(1.60404 5.84029e-21 -0.286816)
(1.57547 3.53737e-19 -0.299845)
(1.54721 -6.95884e-21 -0.311673)
(1.5195 -1.49909e-19 -0.32242)
(1.4918 -6.11893e-20 -0.332174)
(1.46441 6.07718e-20 -0.341035)
(1.4369 4.79745e-20 -0.348951)
(1.40947 8.90021e-20 -0.356023)
(1.38203 3.86243e-19 -0.36219)
(1.3545 2.2908e-19 -0.36759)
(1.32765 2.32765e-19 -0.372267)
(1.29731 -1.83589e-19 -0.376223)
(1.27138 -1.4077e-19 -0.379351)
(1.15326 2.47698e-23 0.708859)
(1.21365 4.30054e-21 0.771035)
(1.28367 2.43775e-20 0.838671)
(1.37682 -4.30162e-20 0.908405)
(1.49965 6.00123e-21 0.969265)
(1.64771 0 1.0035)
(1.80824 8.83613e-21 0.996372)
(1.96023 8.94747e-21 0.938418)
(2.08361 4.27664e-20 0.836717)
(2.16495 4.41035e-20 0.706761)
(2.20242 0 0.568262)
(2.20509 0 0.442195)
(2.18207 -6.17205e-20 0.330567)
(2.14441 -6.68972e-20 0.235236)
(2.0995 -6.27541e-20 0.155543)
(2.0564 6.80818e-21 0.0920679)
(2.0164 1.08465e-19 0.0399858)
(1.97909 1.73456e-19 -0.00596149)
(1.94447 -1.20281e-19 -0.0465669)
(1.91045 -2.24873e-19 -0.083912)
(1.87788 2.54234e-19 -0.11762)
(1.8458 -1.68116e-19 -0.147945)
(1.81383 2.82535e-19 -0.175784)
(1.78261 0 -0.200783)
(1.75128 0 -0.223652)
(1.72064 1.74152e-19 -0.244262)
(1.69026 -1.75825e-19 -0.262628)
(1.6603 -5.54596e-21 -0.27912)
(1.63105 1.39192e-19 -0.293787)
(1.6022 2.52161e-19 -0.307084)
(1.574 0 -0.319137)
(1.54599 0 -0.330117)
(1.51839 -4.40143e-20 -0.34011)
(1.49081 4.33394e-20 -0.349138)
(1.46337 0 -0.357291)
(1.43593 -2.79273e-19 -0.364551)
(1.4083 2.90827e-20 -0.371025)
(1.38114 -1.37462e-21 -0.376701)
(1.35068 -1.39393e-19 -0.381701)
(1.3243 1.19041e-19 -0.385813)
(1.18471 -1.66512e-21 0.638105)
(1.22898 5.62581e-21 0.686639)
(1.27705 -3.54746e-21 0.739931)
(1.33776 -3.13491e-21 0.796809)
(1.41867 2.02171e-20 0.853396)
(1.52352 -4.22087e-21 0.900744)
(1.65121 4.77604e-21 0.927028)
(1.79155 1.27004e-21 0.918204)
(1.92802 1.51602e-20 0.868597)
(2.04234 0 0.780916)
(2.12241 0 0.667155)
(2.16538 -9.74817e-21 0.548248)
(2.1764 1.30334e-19 0.430598)
(2.16344 -1.47102e-19 0.322976)
(2.13337 1.57046e-19 0.228569)
(2.097 -5.37143e-20 0.152397)
(2.05934 1.37608e-19 0.0903472)
(2.02241 -2.36846e-19 0.0369996)
(1.9875 2.34542e-19 -0.0091466)
(1.9532 1.88716e-20 -0.0510234)
(1.92031 0 -0.0884627)
(1.88796 -2.28204e-19 -0.122093)
(1.85569 2.89205e-19 -0.152896)
(1.82411 -1.00061e-20 -0.180508)
(1.79247 -3.11659e-19 -0.20574)
(1.76153 1.51653e-19 -0.228447)
(1.73089 0 -0.248796)
(1.70061 -2.44113e-19 -0.267135)
(1.67102 -1.04269e-19 -0.28347)
(1.64185 -9.43855e-20 -0.298272)
(1.61338 9.86225e-20 -0.311664)
(1.58518 0 -0.323889)
(1.55746 0 -0.335033)
(1.52987 0 -0.345168)
(1.50251 0 -0.354377)
(1.47525 2.04079e-19 -0.36267)
(1.44784 1.7488e-19 -0.37015)
(1.42086 -1.3833e-19 -0.376807)
(1.3908 2.15455e-19 -0.382872)
(1.36443 3.33388e-21 -0.387962)
(1.2117 3.02307e-20 0.583663)
(1.2459 -2.84054e-20 0.621929)
(1.2812 -1.95273e-20 0.664485)
(1.32374 1.88356e-20 0.710707)
(1.37889 -1.58325e-20 0.758951)
(1.4512 1.57368e-20 0.805314)
(1.54444 0 0.843262)
(1.65708 5.79581e-21 0.861746)
(1.78097 -1.1335e-20 0.851231)
(1.90188 0 0.80574)
(2.00503 0 0.727479)
(2.0793 -5.23317e-20 0.63063)
(2.1239 -1.10833e-19 0.521434)
(2.14111 -6.6766e-20 0.411717)
(2.13387 2.23005e-19 0.307939)
(2.11145 -1.27348e-19 0.220591)
(2.08146 0 0.147991)
(2.04844 4.1946e-20 0.0861223)
(2.01537 -2.10365e-20 0.0334415)
(1.98211 1.48247e-19 -0.0136345)
(1.94985 -1.64061e-19 -0.0552335)
(1.91799 0 -0.0924636)
(1.88607 1.81911e-20 -0.126461)
(1.85469 -1.3396e-19 -0.156889)
(1.82318 1.32689e-19 -0.184658)
(1.79229 0 -0.209591)
(1.76171 0 -0.231993)
(1.73143 -9.98351e-20 -0.252236)
(1.70177 9.50539e-20 -0.270311)
(1.67252 -9.02409e-20 -0.286687)
(1.64396 7.86259e-20 -0.301483)
(1.61572 1.40871e-19 -0.314996)
(1.58798 6.02522e-20 -0.327318)
(1.56043 -5.93558e-20 -0.338566)
(1.53314 0 -0.348828)
(1.50602 -1.70765e-19 -0.358134)
(1.47881 -1.46434e-19 -0.366595)
(1.45205 -1.26445e-19 -0.374208)
(1.42243 9.79057e-20 -0.381291)
(1.39626 7.44721e-20 -0.387332)
(1.23482 2.32752e-20 0.540502)
(1.26268 4.06691e-21 0.571024)
(1.29006 1.62667e-20 0.605118)
(1.32159 0 0.64265)
(1.36109 -8.9844e-21 0.682808)
(1.41201 -2.02713e-20 0.723789)
(1.47862 0 0.762533)
(1.56318 -1.4993e-20 0.792234)
(1.66399 -5.20782e-21 0.804807)
(1.77354 -8.70364e-21 0.791583)
(1.8802 2.79601e-20 0.748216)
(1.97068 -4.1581e-20 0.680447)
(2.04013 1.98957e-21 0.591269)
(2.08561 9.24162e-20 0.491032)
(2.10456 -5.68388e-20 0.386725)
(2.10153 -6.50148e-20 0.292947)
(2.08448 1.30773e-19 0.211384)
(2.05945 9.8027e-20 0.140905)
(2.03094 -5.09226e-21 0.0809606)
(2.00047 -2.30295e-19 0.0279509)
(1.97 5.94872e-21 -0.0183457)
(1.93946 2.49799e-19 -0.0595409)
(1.90857 -1.31198e-19 -0.0969753)
(1.87794 0 -0.130421)
(1.84702 -1.33753e-20 -0.160916)
(1.81656 9.86914e-20 -0.18825)
(1.78633 -9.72829e-20 -0.212848)
(1.7563 0 -0.235105)
(1.72681 4.01282e-20 -0.25502)
(1.69765 -6.99629e-20 -0.273067)
(1.66915 3.13762e-21 -0.289353)
(1.64098 -6.27013e-20 -0.30422)
(1.6133 -1.12973e-19 -0.317771)
(1.58585 -5.022e-20 -0.330167)
(1.55866 1.22176e-19 -0.341507)
(1.53165 -1.09919e-19 -0.351839)
(1.5046 0 -0.361282)
(1.47799 1.07465e-19 -0.369844)
(1.44871 -8.10686e-20 -0.377914)
(1.42273 -6.58191e-20 -0.384879)
(1.25475 -3.99174e-20 0.505596)
(1.27839 1.15861e-20 0.530293)
(1.30074 4.19765e-21 0.557763)
(1.32536 1.49527e-20 0.588181)
(1.35505 7.00247e-21 0.621232)
(1.39229 2.58858e-20 0.656042)
(1.44052 -2.33061e-20 0.691273)
(1.50273 1.33331e-20 0.723147)
(1.5803 4.15698e-21 0.746343)
(1.67093 -4.09843e-21 0.753198)
(1.76793 -7.22683e-21 0.737115)
(1.86027 3.9567e-20 0.697468)
(1.94218 -5.49131e-20 0.633611)
(2.00814 2.55048e-20 0.551776)
(2.05106 -7.65453e-20 0.456557)
(2.06945 8.19326e-20 0.363497)
(2.06917 0 0.277122)
(2.05608 -1.04127e-19 0.199755)
(2.03528 1.08917e-19 0.132759)
(2.00983 -1.3154e-19 0.0734333)
(1.98259 2.14524e-19 0.0219681)
(1.95433 2.07613e-20 -0.0235836)
(1.92518 -1.21447e-19 -0.0647382)
(1.89588 -1.19267e-20 -0.101433)
(1.86602 1.0643e-20 -0.134859)
(1.83637 -5.35818e-21 -0.164771)
(1.80678 7.68963e-20 -0.19171)
(1.77726 -7.72154e-20 -0.216099)
(1.74814 -3.13757e-20 -0.237964)
(1.71926 6.51501e-20 -0.25779)
(1.69094 -1.10939e-19 -0.275668)
(1.66292 1.04377e-19 -0.291979)
(1.63537 1.35592e-19 -0.306832)
(1.60804 -8.52022e-20 -0.320432)
(1.58098 -3.89138e-20 -0.332887)
(1.55409 8.91638e-22 -0.344274)
(1.52716 1.02778e-19 -0.354719)
(1.50066 -8.4002e-20 -0.364243)
(1.47161 -1.26291e-19 -0.37329)
(1.44577 -8.68006e-23 -0.381168)
(1.27212 3.00449e-22 0.476946)
(1.2928 0 0.497207)
(1.31184 0 0.519546)
(1.33201 -1.29724e-20 0.544248)
(1.3554 0 0.571283)
(1.38381 -5.82258e-21 0.600278)
(1.41981 1.54115e-20 0.630726)
(1.46599 0 0.660584)
(1.52455 -8.69137e-21 0.686764)
(1.59597 6.56882e-21 0.703742)
(1.67755 -2.7424e-21 0.705454)
(1.76205 -1.04249e-21 0.688046)
(1.84503 1.28193e-20 0.648601)
(1.9212 0 0.589091)
(1.9815 0 0.510301)
(2.01928 -3.41817e-20 0.425426)
(2.03697 7.3122e-20 0.340167)
(2.03859 -7.95467e-20 0.259604)
(2.02849 8.43007e-20 0.187255)
(2.01055 -8.67622e-20 0.12208)
(1.98832 8.62301e-20 0.0653397)
(1.96353 -1.92459e-19 0.015151)
(1.93697 1.06833e-19 -0.0299875)
(1.90964 -9.77816e-21 -0.0701509)
(1.88133 6.01563e-22 -0.10669)
(1.85288 7.56177e-20 -0.139346)
(1.82425 -1.35955e-19 -0.168779)
(1.79548 4.72203e-21 -0.195432)
(1.76695 4.70441e-21 -0.219362)
(1.7385 -2.19675e-20 -0.241073)
(1.7105 1.49022e-19 -0.260646)
(1.68271 -2.39332e-21 -0.278494)
(1.65535 -7.91532e-20 -0.294734)
(1.62818 7.41068e-20 -0.309607)
(1.60125 -5.73307e-20 -0.323235)
(1.57448 5.09257e-21 -0.335717)
(1.54765 -6.53299e-20 -0.347194)
(1.52124 6.51257e-20 -0.357702)
(1.49233 1.1493e-19 -0.367739)
(1.46658 3.17009e-21 -0.376531)
(1.28745 1.81482e-20 0.453161)
(1.30595 2.25678e-20 0.469983)
(1.32271 -2.17222e-20 0.488341)
(1.33994 -2.31029e-20 0.50852)
(1.35921 0 0.530618)
(1.38185 -9.8344e-21 0.554527)
(1.40973 9.36574e-22 0.580167)
(1.44488 0 0.606443)
(1.48935 1.76288e-20 0.631682)
(1.54462 -6.97087e-21 0.652266)
(1.61033 8.27228e-21 0.663681)
(1.68258 2.99104e-21 0.661239)
(1.75893 0 0.641396)
(1.83595 0 0.603266)
(1.9052 0 0.544213)
(1.95719 -1.78587e-20 0.473122)
(1.99098 0 0.395033)
(2.00797 -2.77389e-20 0.316209)
(2.01057 9.67858e-20 0.241701)
(2.00242 3.23722e-20 0.172356)
(1.98714 -1.42105e-19 0.110961)
(1.96728 3.70847e-20 0.0562164)
(1.94434 -1.02336e-19 0.00699142)
(1.91971 3.22183e-19 -0.036791)
(1.89351 -1.48873e-19 -0.0765918)
(1.8667 -1.53979e-20 -0.11214)
(1.83936 0 -0.144203)
(1.81162 3.38219e-21 -0.173238)
(1.78388 -1.09471e-19 -0.199344)
(1.75604 1.19908e-19 -0.223046)
(1.72849 -6.19431e-20 -0.244418)
(1.70105 3.99408e-20 -0.263899)
(1.67394 -3.38534e-20 -0.28161)
(1.64696 -5.93799e-20 -0.297831)
(1.62019 -5.21331e-20 -0.312693)
(1.59353 4.5436e-20 -0.326324)
(1.5668 -8.62161e-21 -0.338874)
(1.54044 8.59912e-21 -0.350395)
(1.51162 -8.89993e-20 -0.361446)
(1.4859 -3.39597e-20 -0.371166)
(1.3011 1.41193e-20 0.433233)
(1.31795 -4.66546e-20 0.447348)
(1.33309 4.18325e-20 0.462589)
(1.34831 3.63785e-20 0.479203)
(1.36483 9.8103e-21 0.497329)
(1.38362 -4.8845e-21 0.516977)
(1.40609 -1.82059e-20 0.538279)
(1.43373 0 0.560658)
(1.46822 -3.13652e-20 0.583265)
(1.51114 6.561e-21 0.603825)
(1.56319 1.01974e-20 0.619341)
(1.62265 9.27254e-21 0.625532)
(1.68875 -1.56293e-21 0.619288)
(1.76019 1.75244e-21 0.598508)
(1.83067 0 0.558553)
(1.89034 4.2901e-20 0.503769)
(1.93601 -6.62547e-20 0.437376)
(1.96666 6.31223e-20 0.36516)
(1.98229 -3.08047e-20 0.292551)
(1.98536 2.42839e-20 0.221853)
(1.97875 -1.13079e-19 0.157361)
(1.96535 2.58184e-19 0.0987669)
(1.94723 -1.46524e-19 0.0457016)
(1.92618 -2.89576e-20 -0.00167584)
(1.90274 1.38847e-20 -0.044797)
(1.87807 1.34439e-20 -0.0833239)
(1.85239 0 -0.118116)
(1.82598 -9.94231e-20 -0.149634)
(1.79928 1.01488e-19 -0.178013)
(1.77224 0 -0.2038)
(1.7453 -1.84836e-20 -0.227063)
(1.7183 0 -0.24827)
(1.69153 1.9146e-21 -0.267538)
(1.66481 2.88649e-20 -0.285183)
(1.63821 6.73603e-20 -0.301346)
(1.61169 -2.104e-20 -0.316182)
(1.58504 7.14023e-20 -0.329853)
(1.55873 4.3905e-20 -0.342426)
(1.52995 1.51696e-19 -0.354522)
(1.50423 5.99619e-20 -0.365189)
(1.31336 -2.54501e-20 0.416411)
(1.32894 -2.45749e-21 0.428366)
(1.34287 -1.76708e-20 0.441136)
(1.35667 -1.87612e-20 0.454932)
(1.37131 -4.30624e-21 0.469887)
(1.38751 2.97658e-20 0.486057)
(1.40632 2.42392e-20 0.503654)
(1.42885 0 0.522384)
(1.45639 -9.67795e-22 0.541855)
(1.49031 -1.45536e-20 0.560657)
(1.53162 -8.17837e-21 0.576929)
(1.57981 -3.83298e-21 0.587207)
(1.63509 8.36451e-21 0.589205)
(1.69778 3.36919e-21 0.58074)
(1.76403 2.52246e-21 0.556655)
(1.82533 0 0.517727)
(1.87765 0 0.465136)
(1.91847 6.14252e-20 0.403104)
(1.94563 -1.46184e-19 0.336302)
(1.96 3.99911e-20 0.267657)
(1.96306 1.30937e-19 0.202442)
(1.95741 -4.77606e-20 0.141439)
(1.94533 0 0.085296)
(1.92883 1.38384e-19 0.0346621)
(1.90892 -9.36251e-20 -0.0116512)
(1.88695 0 -0.0531377)
(1.86339 -8.23253e-20 -0.0906967)
(1.83865 9.84023e-20 -0.124754)
(1.81325 0 -0.155471)
(1.78724 0 -0.183418)
(1.76107 0 -0.208652)
(1.73467 0 -0.231667)
(1.70833 2.32356e-20 -0.252571)
(1.68192 -4.68078e-20 -0.271714)
(1.65556 1.83508e-20 -0.289244)
(1.62918 -5.10758e-20 -0.305343)
(1.60263 -5.7119e-20 -0.320186)
(1.57636 -2.30053e-21 -0.333853)
(1.5476 -6.6774e-20 -0.34703)
(1.52187 -2.47518e-20 -0.358669)
(1.32445 1.15602e-20 0.402121)
(1.33903 2.28369e-20 0.41233)
(1.35204 -2.34228e-21 0.42312)
(1.36481 0 0.434669)
(1.37812 7.89248e-21 0.447094)
(1.39253 -3.93269e-20 0.460458)
(1.40884 -1.49956e-20 0.474987)
(1.42787 1.48056e-20 0.490532)
(1.45058 1.37045e-20 0.506946)
(1.47809 1.28319e-20 0.523349)
(1.51136 1.23544e-20 0.538637)
(1.55047 -6.5443e-22 0.550157)
(1.59605 3.05105e-21 0.556419)
(1.64933 8.13198e-21 0.555687)
(1.70845 8.64955e-22 0.543275)
(1.76694 0 0.517763)
(1.82105 8.39867e-21 0.478733)
(1.86779 2.52664e-20 0.428546)
(1.90363 -4.95465e-20 0.370405)
(1.92799 -2.30686e-21 0.307018)
(1.94067 2.87529e-20 0.24382)
(1.94346 3.43634e-20 0.182446)
(1.93837 -7.55487e-20 0.12454)
(1.92736 -4.00669e-20 0.0714043)
(1.91179 0 0.0223072)
(1.89316 3.71951e-20 -0.021947)
(1.87222 -7.39935e-20 -0.0621963)
(1.84955 -5.86695e-20 -0.0987766)
(1.82577 1.44849e-19 -0.131856)
(1.80103 -1.29505e-21 -0.162003)
(1.77585 -5.75788e-20 -0.189262)
(1.75018 -1.21662e-20 -0.214147)
(1.7244 -1.94525e-20 -0.236754)
(1.6984 1.1812e-19 -0.257462)
(1.67232 -7.03286e-20 -0.276421)
(1.64614 2.94833e-20 -0.29384)
(1.61971 -1.0775e-20 -0.309906)
(1.59348 -6.49533e-20 -0.324711)
(1.56475 0 -0.339009)
(1.53898 1.75157e-20 -0.351647)
(1.33454 1.27834e-21 0.389915)
(1.34832 -1.17714e-21 0.398698)
(1.36063 -2.08548e-20 0.407886)
(1.37262 4.01055e-21 0.417627)
(1.38498 7.28244e-21 0.428022)
(1.39812 6.99048e-21 0.439127)
(1.41269 0 0.451152)
(1.42928 -1.34743e-20 0.464021)
(1.44862 1.33064e-20 0.477705)
(1.47159 -1.29587e-20 0.491643)
(1.499 9.19346e-22 0.505197)
(1.53115 1.36718e-21 0.516388)
(1.56877 -3.54318e-22 0.524326)
(1.61341 -1.45385e-20 0.527831)
(1.66457 0 0.523123)
(1.71775 -4.1616e-21 0.507775)
(1.77001 1.32765e-20 0.480452)
(1.81868 -2.19327e-21 0.441936)
(1.85979 -3.94281e-20 0.393806)
(1.89176 3.0809e-20 0.338004)
(1.91295 0 0.279349)
(1.92403 8.12183e-20 0.21987)
(1.92638 -8.6508e-20 0.161932)
(1.92158 -6.20131e-20 0.10746)
(1.91106 6.3115e-20 0.0563184)
(1.89644 6.28652e-20 0.00972264)
(1.87865 -2.98163e-20 -0.0329802)
(1.8585 4.52128e-20 -0.0719637)
(1.83669 3.91369e-20 -0.107354)
(1.81351 -5.6723e-20 -0.139691)
(1.78954 0 -0.168993)
(1.76481 1.09294e-20 -0.195784)
(1.73973 -3.64449e-20 -0.220142)
(1.71424 3.61607e-20 -0.242468)
(1.68854 1.65245e-20 -0.262909)
(1.66261 2.25411e-21 -0.281701)
(1.63633 1.13971e-20 -0.299036)
(1.61018 6.38545e-20 -0.315022)
(1.58147 -4.13558e-20 -0.330481)
(1.55567 9.76308e-21 -0.344149)
(1.34377 8.33121e-21 0.379435)
(1.35689 1.0823e-21 0.387045)
(1.36865 3.93629e-21 0.394924)
(1.38006 -3.70801e-21 0.403198)
(1.39171 0 0.411952)
(1.40394 0 0.421233)
(1.41727 0 0.431226)
(1.43214 0 0.441885)
(1.44911 -1.15118e-20 0.453236)
(1.46886 2.43729e-20 0.464908)
(1.49203 -2.18233e-20 0.476534)
(1.51899 1.71004e-22 0.486649)
(1.55039 -4.19214e-22 0.494761)
(1.5878 8.9974e-21 0.500159)
(1.63143 9.04119e-21 0.500007)
(1.67838 -5.57712e-21 0.49167)
(1.72661 -6.3357e-22 0.473479)
(1.77418 -2.3335e-21 0.445175)
(1.81734 -3.15621e-20 0.406973)
(1.85411 1.73272e-20 0.359878)
(1.88187 0 0.30759)
(1.90028 -2.22013e-20 0.25206)
(1.90987 -2.18169e-20 0.195942)
(1.91155 -1.11162e-21 0.141584)
(1.90662 5.04057e-20 0.0894411)
(1.89657 -5.16314e-20 0.0411839)
(1.88247 -2.62585e-20 -0.00354219)
(1.86528 0 -0.0446682)
(1.84583 0 -0.0822208)
(1.82453 0 -0.116669)
(1.80202 9.88765e-21 -0.147983)
(1.77843 0 -0.17668)
(1.75422 4.0482e-21 -0.202808)
(1.72938 0 -0.226785)
(1.70415 1.11107e-20 -0.248749)
(1.67855 -2.33e-20 -0.268953)
(1.65249 -1.67284e-20 -0.287601)
(1.62645 -2.7882e-20 -0.304806)
(1.59779 3.85794e-20 -0.321463)
(1.57198 -1.45175e-20 -0.336191)
(1.35225 -8.86032e-21 0.370393)
(1.36483 -1.56806e-20 0.377029)
(1.37614 1.44915e-20 0.383831)
(1.38711 0 0.390905)
(1.39822 0 0.398324)
(1.40979 0 0.406125)
(1.42221 -1.21583e-20 0.414466)
(1.43585 1.1926e-20 0.423315)
(1.45113 -3.60863e-22 0.432717)
(1.46857 -1.24758e-20 0.442415)
(1.48868 -1.23461e-20 0.452194)
(1.5118 -1.19473e-20 0.460963)
(1.53848 -2.71216e-20 0.468477)
(1.57013 1.13744e-20 0.474353)
(1.60728 1.58853e-20 0.476552)
(1.64814 3.91437e-21 0.472644)
(1.69144 -1.95431e-21 0.46101)
(1.736 2.04814e-21 0.440856)
(1.77867 0 0.411484)
(1.81756 -2.68967e-20 0.373073)
(1.84967 1.90064e-20 0.328055)
(1.87384 -2.45176e-20 0.27796)
(1.88982 3.01551e-20 0.225308)
(1.89776 0 0.17257)
(1.89858 0 0.120657)
(1.89346 1.02675e-19 0.0716356)
(1.88349 -6.15415e-20 0.0255126)
(1.8697 1.95692e-20 -0.0173396)
(1.85299 -3.81625e-20 -0.0567885)
(1.83389 2.66262e-21 -0.0931803)
(1.81312 6.03406e-20 -0.126411)
(1.7909 -3.31083e-20 -0.156966)
(1.76775 -2.81173e-21 -0.18485)
(1.74372 0 -0.210484)
(1.71909 7.54615e-22 -0.23399)
(1.69392 0 -0.255636)
(1.66814 8.8205e-21 -0.275626)
(1.64227 -1.42758e-20 -0.294083)
(1.61372 1.31596e-21 -0.31197)
(1.5879 -1.02739e-20 -0.327787)
(1.36006 -1.6243e-20 0.362554)
(1.37218 1.11442e-20 0.368377)
(1.38315 3.43119e-21 0.374285)
(1.39376 0 0.38037)
(1.40447 -5.93731e-21 0.386695)
(1.41553 -5.72568e-21 0.393289)
(1.42728 2.25256e-20 0.400283)
(1.44002 -1.1836e-20 0.407651)
(1.45407 -2.18486e-20 0.415441)
(1.46984 2.23283e-20 0.423465)
(1.48773 3.18003e-20 0.431593)
(1.50802 2.92921e-20 0.439002)
(1.53117 -3.02931e-20 0.445585)
(1.55835 1.61616e-20 0.451171)
(1.59021 -3.16839e-20 0.454317)
(1.62567 0 0.452959)
(1.664 -2.34277e-22 0.445705)
(1.70464 -7.50388e-21 0.431594)
(1.74518 3.3029e-21 0.409444)
(1.78407 1.40862e-22 0.37887)
(1.81836 0 0.341153)
(1.84647 3.69789e-20 0.297255)
(1.86756 -6.39355e-21 0.24926)
(1.88105 0 0.199463)
(1.88737 0 0.149025)
(1.88728 -3.52331e-20 0.100254)
(1.88169 -4.84425e-20 0.053515)
(1.87163 5.0134e-20 0.00949881)
(1.85799 0 -0.0314571)
(1.84142 3.00063e-20 -0.0695297)
(1.82268 -5.83098e-20 -0.104507)
(1.80208 2.7971e-20 -0.136812)
(1.7802 -3.68107e-21 -0.166394)
(1.75714 0 -0.193658)
(1.73325 -7.25026e-21 -0.218701)
(1.70862 3.11252e-20 -0.241799)
(1.68322 -1.13974e-20 -0.263149)
(1.65758 3.53631e-20 -0.282881)
(1.62919 0 -0.30202)
(1.60341 -1.80582e-23 -0.318951)
(1.36728 1.71575e-20 0.355722)
(1.37902 1.19279e-20 0.36086)
(1.38969 -1.26161e-20 0.366023)
(1.40002 1.77433e-20 0.37129)
(1.41042 -2.43248e-22 0.376713)
(1.4211 1.6526e-20 0.382315)
(1.43235 -2.13408e-20 0.388206)
(1.44442 2.68712e-22 0.39436)
(1.45756 1.004e-20 0.400822)
(1.47211 -2.07291e-20 0.407447)
(1.48835 -8.77369e-21 0.41415)
(1.50656 3.93743e-20 0.420302)
(1.52705 -1.06179e-20 0.425868)
(1.55083 1.63817e-20 0.430798)
(1.57851 1.38659e-20 0.434073)
(1.60944 -1.61119e-20 0.43401)
(1.64324 0 0.429491)
(1.67978 -6.0779e-21 0.419595)
(1.71733 6.56199e-21 0.402982)
(1.75476 -3.26781e-21 0.378959)
(1.78947 0 0.347931)
(1.81976 -1.35835e-20 0.310307)
(1.84448 1.55493e-20 0.267598)
(1.86247 -1.86961e-20 0.221707)
(1.8737 0 0.173824)
(1.8784 5.08959e-20 0.126307)
(1.87723 -7.58786e-20 0.0798068)
(1.87108 2.50097e-20 0.0352945)
(1.86078 0 -0.00667025)
(1.847 -4.95751e-20 -0.0460645)
(1.83056 8.52589e-20 -0.0825398)
(1.81182 -3.60396e-20 -0.116426)
(1.79141 -1.87587e-20 -0.147597)
(1.76952 0 -0.176426)
(1.74652 1.39135e-20 -0.202972)
(1.72255 -2.70919e-20 -0.227506)
(1.69763 6.26896e-21 -0.250218)
(1.67232 -2.34198e-20 -0.271233)
(1.64416 5.93812e-22 -0.291637)
(1.61846 -6.46302e-22 -0.309701)
(1.37397 0 0.34973)
(1.38538 -1.61343e-20 0.35429)
(1.39581 1.50279e-20 0.358829)
(1.40591 -5.78872e-21 0.363414)
(1.41606 5.3069e-21 0.36809)
(1.42645 -1.05467e-20 0.372874)
(1.43732 2.46797e-22 0.377856)
(1.44889 3.02496e-20 0.383013)
(1.46135 1.92767e-20 0.388379)
(1.47497 -1.00801e-20 0.393842)
(1.49 -1.80184e-20 0.399339)
(1.50664 1.97411e-20 0.404381)
(1.52514 1.7249e-20 0.408966)
(1.54633 -3.47577e-20 0.413111)
(1.57075 1.8706e-20 0.416081)
(1.598 2.9476e-20 0.416535)
(1.62792 -1.44972e-20 0.413606)
(1.66062 0 0.406499)
(1.69491 0 0.393914)
(1.73005 5.46882e-21 0.375058)
(1.76393 0 0.349749)
(1.79495 -1.28377e-20 0.317962)
(1.82183 1.3599e-20 0.280636)
(1.84313 -4.29214e-20 0.239182)
(1.8584 2.86973e-20 0.194647)
(1.8674 1.62244e-20 0.149253)
(1.87045 -3.62923e-20 0.103821)
(1.86821 -2.30432e-20 0.0595232)
(1.86137 6.18506e-20 0.0171198)
(1.85059 0 -0.0231567)
(1.83665 3.00381e-20 -0.060808)
(1.81999 6.29376e-21 -0.0960434)
(1.80127 -1.95545e-20 -0.128643)
(1.78072 -1.56255e-20 -0.158929)
(1.75877 2.90798e-21 -0.186909)
(1.73561 -8.87848e-21 -0.21284)
(1.7113 1.59752e-20 -0.236891)
(1.68639 1.15552e-20 -0.259183)
(1.65856 -7.71009e-21 -0.280851)
(1.63299 -3.19395e-22 -0.300057)
(1.38019 0 0.34444)
(1.39131 -1.21458e-20 0.348508)
(1.40152 0 0.352522)
(1.41144 1.0704e-20 0.356536)
(1.4214 -1.03642e-20 0.360589)
(1.43155 -2.0606e-22 0.364695)
(1.44214 -9.79797e-21 0.368926)
(1.45331 9.88068e-21 0.37326)
(1.46526 -1.88644e-20 0.377723)
(1.47819 0 0.382221)
(1.49229 -3.59703e-20 0.386707)
(1.50774 5.49993e-20 0.390792)
(1.52474 -4.58548e-22 0.394488)
(1.54395 -1.7393e-20 0.397841)
(1.56585 1.0238e-21 0.40031)
(1.59017 -1.45746e-20 0.400831)
(1.61686 -1.45218e-20 0.398739)
(1.64618 2.09172e-20 0.393391)
(1.67731 -6.48139e-21 0.383622)
(1.70984 -2.18824e-20 0.368658)
(1.74213 0 0.34799)
(1.77277 -1.62878e-21 0.321301)
(1.80061 1.93191e-21 0.289048)
(1.82404 1.67026e-20 0.252153)
(1.84237 -1.72863e-20 0.211422)
(1.85497 -1.47561e-20 0.168795)
(1.86182 3.76651e-21 0.125148)
(1.86331 0 0.0817457)
(1.85991 1.44006e-20 0.0394975)
(1.85222 -1.02757e-21 -0.00117378)
(1.84094 1.50718e-20 -0.039621)
(1.82654 -4.47951e-20 -0.0759158)
(1.80968 2.8259e-20 -0.109734)
(1.79065 2.6969e-21 -0.141324)
(1.76992 5.95565e-21 -0.170636)
(1.7477 -5.3612e-21 -0.197894)
(1.72411 -6.47336e-21 -0.223242)
(1.69972 -5.74252e-21 -0.246786)
(1.67232 7.3976e-21 -0.269702)
(1.64694 0 -0.29005)
(1.38597 -1.55527e-21 0.33973)
(1.39684 1.30638e-20 0.34338)
(1.40687 -1.0743e-20 0.346949)
(1.41664 -1.52868e-20 0.350483)
(1.42643 5.03398e-21 0.354016)
(1.4364 1.99568e-22 0.357557)
(1.44676 2.02569e-22 0.361165)
(1.45763 -1.85545e-20 0.364817)
(1.46918 1.82584e-20 0.368532)
(1.48157 0 0.372231)
(1.49497 6.89249e-22 0.375872)
(1.50951 -1.70126e-20 0.379143)
(1.52534 -1.68715e-20 0.382059)
(1.54303 1.63239e-20 0.384675)
(1.56297 -3.06073e-20 0.386578)
(1.58498 3.23124e-20 0.386926)
(1.60904 3.95943e-20 0.385207)
(1.6355 -2.81225e-20 0.380916)
(1.66377 0 0.373051)
(1.69369 0 0.360922)
(1.724 0 0.343876)
(1.75358 -5.4014e-21 0.321431)
(1.78142 5.53028e-21 0.293691)
(1.80597 7.75515e-21 0.261156)
(1.8264 -8.03508e-21 0.224363)
(1.8418 -1.73233e-20 0.184893)
(1.85188 2.92317e-20 0.14357)
(1.85675 0 0.101651)
(1.85664 0 0.0601221)
(1.85201 -1.08614e-20 0.0195546)
(1.84347 -1.07959e-20 -0.0192759)
(1.83144 -2.21964e-21 -0.056299)
(1.81659 0 -0.0910818)
(1.79924 -2.49178e-21 -0.123787)
(1.77987 6.99854e-21 -0.154291)
(1.75873 -1.00432e-20 -0.182777)
(1.73599 0 -0.209353)
(1.71223 5.3242e-21 -0.234106)
(1.68534 0 -0.258236)
(1.66023 1.20851e-20 -0.279713)
(1.39137 0 0.335496)
(1.40201 2.70604e-21 0.338788)
(1.41188 -2.55741e-21 0.34198)
(1.42151 0 0.34511)
(1.43117 0 0.348206)
(1.44099 -1.84848e-20 0.351274)
(1.45116 0 0.354364)
(1.4618 3.56943e-20 0.357449)
(1.47303 -1.7504e-20 0.360544)
(1.48501 1.69682e-20 0.363579)
(1.49785 -5.19393e-20 0.366516)
(1.51168 1.62644e-20 0.369101)
(1.52662 -1.7231e-20 0.371344)
(1.54312 0 0.373301)
(1.56153 -2.99822e-20 0.374647)
(1.5817 1.75323e-20 0.374709)
(1.60366 0 0.373091)
(1.62772 0 0.369395)
(1.65351 0 0.362785)
(1.68099 -1.79428e-20 0.352672)
(1.70924 5.2956e-21 0.338373)
(1.73737 1.46466e-20 0.319341)
(1.76458 -4.31191e-21 0.295447)
(1.78944 -1.75971e-22 0.266869)
(1.8111 0 0.233889)
(1.82853 -9.41314e-21 0.19772)
(1.84121 9.63992e-21 0.159063)
(1.84899 0 0.119076)
(1.85188 -1.67016e-20 0.0787546)
(1.85018 2.70158e-20 0.038762)
(1.84434 9.96731e-21 -3.44508e-05)
(1.83474 -1.67643e-20 -0.0374327)
(1.822 6.71204e-21 -0.0728966)
(1.80644 0 -0.106491)
(1.78856 8.31075e-21 -0.138019)
(1.76863 -1.3505e-20 -0.167607)
(1.74686 1.69514e-21 -0.195318)
(1.72383 1.55538e-21 -0.221214)
(1.69757 6.57255e-21 -0.246506)
(1.67281 -2.70985e-20 -0.269087)
(1.3964 0 0.331646)
(1.40683 -1.56411e-20 0.334631)
(1.41656 1.48785e-20 0.337503)
(1.42608 -9.26171e-21 0.340291)
(1.43562 9.28446e-21 0.343019)
(1.44532 1.78331e-20 0.345691)
(1.45534 -8.57226e-21 0.348347)
(1.46578 2.57721e-20 0.35096)
(1.47676 -3.39987e-20 0.353539)
(1.48841 5.07058e-20 0.356022)
(1.50082 -5.368e-22 0.358373)
(1.51409 1.64779e-20 0.36038)
(1.52831 -1.64369e-20 0.362051)
(1.54389 0 0.363435)
(1.56109 1.57935e-20 0.364266)
(1.5798 -1.35292e-20 0.364003)
(1.60005 3.04973e-20 0.362333)
(1.62215 0 0.358945)
(1.64584 0 0.353146)
(1.67114 2.39468e-20 0.344443)
(1.69739 -1.72238e-20 0.33219)
(1.72392 4.71699e-21 0.315835)
(1.7501 1.40369e-20 0.295117)
(1.7747 9.37267e-21 0.269988)
(1.79691 -5.22509e-21 0.240528)
(1.81565 0 0.207603)
(1.83028 -6.05801e-21 0.17176)
(1.84046 6.2582e-21 0.134003)
(1.84598 -7.21542e-21 0.0952704)
(1.84697 0 0.0562618)
(1.84372 -1.14787e-20 0.0178925)
(1.83653 9.04415e-21 -0.019527)
(1.82594 7.80317e-21 -0.0553721)
(1.81225 -9.78275e-21 -0.0896102)
(1.79596 1.07632e-21 -0.121965)
(1.77736 6.58663e-22 -0.152503)
(1.75666 -1.16736e-22 -0.181236)
(1.73447 0 -0.208189)
(1.70894 -1.68815e-20 -0.234575)
(1.6846 -4.52398e-21 -0.258219)
(1.40111 0 0.328097)
(1.41135 5.18402e-23 0.330819)
(1.42095 4.66524e-21 0.333418)
(1.43035 -4.60465e-21 0.335916)
(1.4398 1.76266e-20 0.338335)
(1.44939 0 0.340675)
(1.45928 -1.69564e-20 0.342967)
(1.46957 -1.70637e-20 0.345186)
(1.48035 -1.68561e-20 0.347335)
(1.49172 1.50483e-22 0.349358)