/*--------------------------------*- C++ -*----------------------------------*\
| =========                 |                                                 |
| \\      /  F ield         | OpenFOAM: The Open Source CFD Toolbox           |
|  \\    /   O peration     | Version:  5.x                                   |
|   \\  /    A nd           | Web:      www.OpenFOAM.org                      |
|    \\/     M anipulation  |                                                 |
\*---------------------------------------------------------------------------*/
FoamFile
{
    version     2.0;
    format      ascii;
    class       volScalarField;
    location    "400";
    object      nut;
}
// * * * * * * * * * * * * * * * * * * * * * * * * * * * * * * * * * * * * * //

dimensions      [0 2 -1 0 0 0 0];

internalField   nonuniform List<scalar> 
26000
(
0.000399802
0.000315153
0.000241276
0.000189
0.000152643
0.000135846
0.000129437
0.000123735
0.000119404
0.000115632
0.000112862
0.000111695
0.00010869
0.000108733
0.000109686
0.000110346
0.000111355
0.000113079
0.000115398
0.000118369
0.000121777
0.00012539
0.000129361
0.000133481
0.000137303
0.000140624
0.000143513
0.000146242
0.00014887
0.000151481
0.000153973
0.000156144
0.000157928
0.00015928
0.000160208
0.00016067
0.00016062
0.000160117
0.000158395
0.00015628
0.0016201
0.00139066
0.00112135
0.000915918
0.000762538
0.000647851
0.000560891
0.000495185
0.000443826
0.000404749
0.000374632
0.000352284
0.000332316
0.000317769
0.00030778
0.0002985
0.000290083
0.00028497
0.000281538
0.000280894
0.000281569
0.000282611
0.000285278
0.000288326
0.000289347
0.000287955
0.000285082
0.00028208
0.00027915
0.000276618
0.000273886
0.000269891
0.000264966
0.00025905
0.000252471
0.000245106
0.000237175
0.000228703
0.000219156
0.000210687
0.00289
0.00258363
0.00222728
0.00190522
0.00162948
0.00140951
0.00123496
0.00109847
0.000989472
0.000904339
0.000837348
0.00078618
0.000741999
0.000703761
0.000668913
0.000642205
0.000619705
0.000600291
0.000585215
0.000573129
0.000565339
0.000558156
0.000551982
0.000547576
0.000545
0.000544249
0.000544036
0.000545212
0.0005469
0.000549801
0.000550744
0.000547603
0.000542766
0.000535691
0.00052669
0.000515414
0.000502245
0.000487462
0.000468876
0.000451759
0.00420621
0.00386993
0.00345158
0.0030254
0.00265135
0.00233497
0.00206959
0.00185099
0.00166978
0.0015233
0.0014051
0.00131391
0.00123591
0.00116655
0.00111064
0.00106879
0.0010336
0.00100422
0.000981487
0.000963729
0.000951811
0.000937969
0.000924531
0.000913893
0.000905202
0.000898642
0.000892232
0.000887223
0.000882862
0.000879346
0.000876603
0.000873843
0.00087175
0.000865191
0.000854783
0.000840066
0.000821634
0.000799885
0.000772015
0.000745285
0.00555413
0.00520381
0.00474516
0.00426485
0.00381244
0.0034059
0.00305058
0.00274725
0.00249009
0.00227791
0.00210361
0.0019668
0.00185019
0.00174668
0.0016609
0.00159534
0.00153952
0.00149137
0.00145194
0.00141909
0.00139458
0.00137392
0.00135696
0.00134434
0.0013344
0.00132501
0.00131453
0.00130542
0.00129594
0.00128629
0.00127695
0.00126715
0.00125787
0.00124775
0.00123623
0.00121819
0.00119416
0.00116472
0.00112633
0.00108842
0.00693023
0.0065741
0.00609384
0.00557865
0.00506888
0.00459609
0.00416605
0.00378275
0.00344873
0.00316641
0.00292977
0.00274026
0.00257765
0.00243148
0.00230528
0.00220645
0.00212676
0.0020598
0.00200458
0.00195804
0.0019216
0.00188903
0.00186136
0.00183951
0.00182046
0.00180611
0.00179329
0.0017833
0.00177037
0.00175634
0.00174136
0.0017246
0.00170743
0.00168871
0.00166945
0.00164696
0.00161686
0.00157903
0.00152919
0.00147886
0.00833201
0.00797435
0.00748332
0.00694554
0.00639981
0.00587462
0.00538045
0.00493052
0.00452631
0.00417465
0.0038727
0.00362562
0.00341108
0.00321698
0.00304971
0.00291613
0.00280711
0.00271529
0.00263784
0.00257071
0.00251773
0.00247303
0.00243575
0.00240597
0.0023775
0.00235467
0.00233349
0.00231537
0.00229844
0.00228206
0.00226257
0.00223971
0.00221506
0.0021873
0.00215793
0.00212576
0.0020882
0.00204084
0.00197829
0.00191411
0.0097578
0.00940128
0.00890629
0.0083555
0.00778782
0.00722584
0.00668435
0.00617637
0.00570874
0.00529206
0.00492649
0.00462142
0.00435327
0.0041085
0.00389472
0.00372126
0.00357628
0.00345358
0.00335208
0.00326366
0.00319296
0.00313134
0.00307877
0.00303579
0.00299791
0.00296827
0.00293874
0.00291194
0.00288623
0.00286125
0.00283681
0.00280875
0.00277714
0.00274041
0.00270042
0.00265618
0.00260822
0.00254953
0.00247281
0.00239328
0.0112061
0.0108525
0.010358
0.00980132
0.00922061
0.00863469
0.00805721
0.00750466
0.00698469
0.0065108
0.00608509
0.00572302
0.00540033
0.00510262
0.00483769
0.00461993
0.00443739
0.00428099
0.00415126
0.00403621
0.00394175
0.00386204
0.00379389
0.00373683
0.00368509
0.00364249
0.00360403
0.00356989
0.00353536
0.0035006
0.00346642
0.00343038
0.00339174
0.0033461
0.00329516
0.00323798
0.00317602
0.0031048
0.00301246
0.00291597
0.0126754
0.0123261
0.0118351
0.0112774
0.0106893
0.0100898
0.00948762
0.00890139
0.00833739
0.00781355
0.00733559
0.00692049
0.00654454
0.00619256
0.00587631
0.00561313
0.00539065
0.00519604
0.0050325
0.00488914
0.00476995
0.00466858
0.00458014
0.00450591
0.00443996
0.00438408
0.00433289
0.00428662
0.00424298
0.0041989
0.00415421
0.00410697
0.00405838
0.00400342
0.00394108
0.00387028
0.00379289
0.00370705
0.00359721
0.00348204
0.0141641
0.0138201
0.0133349
0.0127801
0.01219
0.0115834
0.0109653
0.0103539
0.00975752
0.00919328
0.00866864
0.00820515
0.00777957
0.00737594
0.00700815
0.00669811
0.00643135
0.00619737
0.00599883
0.0058241
0.0056763
0.00554968
0.00543953
0.00534625
0.0052623
0.00519049
0.0051262
0.00506663
0.00500999
0.00495443
0.00489914
0.00483999
0.00477866
0.00471229
0.00463764
0.00455247
0.00445866
0.00435623
0.004227
0.00409146
0.0156707
0.0153328
0.0148551
0.0143059
0.0137178
0.013109
0.0124821
0.0118539
0.0112335
0.0106362
0.0100739
0.00956857
0.0090981
0.00864605
0.00822779
0.00786982
0.00755951
0.00728475
0.00704891
0.0068385
0.00666061
0.00650741
0.00637196
0.00625639
0.00615369
0.00606356
0.00598195
0.00590879
0.00583829
0.00576849
0.00570015
0.00562884
0.00555376
0.0054723
0.00538464
0.00528429
0.00517305
0.00505214
0.0049018
0.00474429
0.0171933
0.0168623
0.0163933
0.0158518
0.0152686
0.0146612
0.0140311
0.0133928
0.0127559
0.0121343
0.0115413
0.0109994
0.0104889
0.00999308
0.00952823
0.00912475
0.00877179
0.00845518
0.00818008
0.00793312
0.00772288
0.00753897
0.00737701
0.00723785
0.00711206
0.00700264
0.00690294
0.00681149
0.00672671
0.00664198
0.00655829
0.00647298
0.00638342
0.00628579
0.00618245
0.00606567
0.00593594
0.00579451
0.00562163
0.0054407
0.0187305
0.0184068
0.0179476
0.0174154
0.0168392
0.0162354
0.0156068
0.0149637
0.0143151
0.0136775
0.0130602
0.01249
0.0119459
0.0114115
0.010904
0.0104572
0.0100608
0.00970342
0.00939053
0.00910582
0.00886066
0.00864536
0.00845476
0.00828896
0.0081398
0.00800847
0.00788806
0.00777778
0.00767407
0.00757393
0.00747411
0.00737144
0.00726707
0.00715253
0.00703055
0.00689663
0.00674731
0.00658294
0.00638666
0.0061809
0.0202803
0.0199645
0.0195159
0.0189944
0.0184274
0.0178303
0.0172057
0.0165623
0.0159078
0.015259
0.0146244
0.0140314
0.0134585
0.0128905
0.0123452
0.0118592
0.0114229
0.0110263
0.0106737
0.0103519
0.0100728
0.0098247
0.00960319
0.00941007
0.009234
0.00908022
0.00893782
0.00880614
0.0086831
0.0085635
0.008447
0.00832645
0.00820462
0.00807218
0.00793072
0.0077776
0.0076072
0.00741921
0.00719744
0.00696512
0.021841
0.0215335
0.0210963
0.0205865
0.0200303
0.019442
0.0188239
0.0181836
0.0175275
0.0168715
0.016226
0.0156152
0.0150208
0.0144252
0.0138474
0.0133261
0.0128528
0.0124171
0.0120273
0.0116693
0.0113539
0.0110733
0.0108213
0.0105983
0.0103954
0.0102154
0.0100507
0.00989686
0.00975217
0.00961281
0.00947622
0.0093373
0.00919495
0.00904421
0.00888251
0.00870842
0.00851551
0.00830287
0.00805405
0.00779352
0.0234109
0.0231122
0.0226868
0.0221895
0.0216452
0.0210675
0.0204579
0.0198235
0.0191697
0.0185114
0.0178593
0.0172362
0.016625
0.0160062
0.0154007
0.0148487
0.0143425
0.0138718
0.0134471
0.0130524
0.0127026
0.0123895
0.0121053
0.0118531
0.0116208
0.0114149
0.0112244
0.0110482
0.0108812
0.0107206
0.010563
0.0104035
0.0102402
0.0100686
0.00988553
0.00968856
0.00947207
0.00923374
0.00895645
0.00866616
0.0249884
0.0246986
0.0242856
0.0238015
0.02327
0.022704
0.0221047
0.0214783
0.0208297
0.0201729
0.0195181
0.0188874
0.0182642
0.0176285
0.0170009
0.016423
0.0158875
0.0153854
0.0149267
0.0144979
0.0141153
0.0137689
0.0134537
0.0131705
0.0129098
0.0126755
0.0124597
0.0122581
0.0120687
0.0118846
0.011706
0.0115236
0.0113392
0.0111442
0.0109394
0.0107172
0.0104768
0.0102117
0.00990459
0.00958305
0.0265718
0.0262913
0.0258909
0.0254205
0.0249025
0.0243492
0.0237616
0.0231451
0.0225039
0.0218512
0.0211971
0.0205627
0.0199309
0.0192841
0.0186396
0.0180404
0.0174794
0.0169504
0.016462
0.0160015
0.0155864
0.015209
0.0148617
0.0145492
0.0142584
0.0139969
0.0137537
0.0135272
0.0133129
0.0131058
0.0129042
0.0126987
0.0124912
0.0122726
0.0120442
0.0117964
0.0115299
0.0112367
0.0108983
0.0105441
0.0281596
0.0278886
0.027501
0.0270447
0.0265409
0.0260012
0.0254262
0.0248211
0.0241893
0.0235431
0.0228916
0.022258
0.0216223
0.0209678
0.0203097
0.0196936
0.0191131
0.0185593
0.0180447
0.0175561
0.0171123
0.0167041
0.0163273
0.0159844
0.0156653
0.0153752
0.0151057
0.0148527
0.0146139
0.0143823
0.0141555
0.013927
0.0136947
0.0134524
0.0131992
0.0129249
0.012631
0.0123083
0.0119375
0.0115493
0.0297505
0.029489
0.0291146
0.0286726
0.0281834
0.027658
0.0270966
0.0265041
0.0258834
0.0252461
0.0246005
0.0239695
0.0233334
0.0226752
0.0220089
0.0213802
0.0207835
0.0202096
0.0196726
0.0191587
0.018687
0.0182514
0.017845
0.0174744
0.0171262
0.0168092
0.0165124
0.0162339
0.0159696
0.0157117
0.0154607
0.0152076
0.0149503
0.0146829
0.0144031
0.0141016
0.0137794
0.0134261
0.0130216
0.0125981
0.0313432
0.0310915
0.0307302
0.0303029
0.0298286
0.0293179
0.0287708
0.0281919
0.0275837
0.026957
0.0263197
0.0256937
0.0250598
0.024401
0.0237307
0.0230935
0.0224842
0.0218933
0.0213382
0.0208031
0.0203075
0.0198453
0.0194126
0.019014
0.0186395
0.0182951
0.0179726
0.017668
0.0173768
0.0170939
0.0168175
0.016538
0.0162562
0.0159627
0.0156542
0.0153257
0.0149743
0.0145894
0.0141501
0.0136901
0.0329367
0.0326948
0.0323468
0.0319342
0.0314753
0.0309798
0.0304474
0.0298828
0.0292881
0.0286735
0.0280463
0.0274275
0.026798
0.0261405
0.0254705
0.0248285
0.0242097
0.0236075
0.0230358
0.0224824
0.0219675
0.021483
0.0210247
0.0206014
0.0202003
0.019831
0.0194828
0.0191512
0.0188351
0.0185265
0.0182234
0.0179189
0.0176113
0.0172904
0.0169536
0.0165966
0.016215
0.0157975
0.0153224
0.0148249
0.0345302
0.034298
0.0339633
0.0335656
0.0331223
0.0326429
0.0321252
0.0315753
0.030995
0.0303937
0.0297781
0.0291685
0.028546
0.0278933
0.0272255
0.0265811
0.0259584
0.0253482
0.0247646
0.0241957
0.0236617
0.0231586
0.0226789
0.0222313
0.021807
0.0214131
0.0210388
0.0206829
0.0203415
0.0200063
0.0196784
0.0193482
0.0190139
0.0186639
0.0182996
0.0179134
0.0175007
0.0170496
0.0165379
0.0160019
0.036123
0.0359006
0.035579
0.035196
0.0347681
0.0343044
0.0338025
0.033268
0.0327029
0.0321159
0.0315133
0.0309145
0.0303011
0.029656
0.0289934
0.0283503
0.0277259
0.0271108
0.0265186
0.025938
0.0253889
0.0248673
0.0243698
0.0239017
0.0234551
0.0230369
0.0226398
0.0222596
0.0218925
0.0215332
0.0211801
0.0208238
0.020462
0.0200838
0.019691
0.0192749
0.0188302
0.0183448
0.0177957
0.0172204
0.0377147
0.0375021
0.0371937
0.0368253
0.0364129
0.0359646
0.0354786
0.0349602
0.0344109
0.0338391
0.0332507
0.0326639
0.0320613
0.0314259
0.030771
0.0301322
0.0295089
0.0288916
0.0282934
0.0277042
0.0271436
0.0266079
0.0260931
0.025608
0.0251401
0.0247016
0.0242822
0.0238778
0.023488
0.0231045
0.0227258
0.0223432
0.0219532
0.0215481
0.0211265
0.0206798
0.0202025
0.0196823
0.0190952
0.0184799
0.0393054
0.0391025
0.0388071
0.0384535
0.038057
0.0376238
0.0371536
0.0366514
0.0361186
0.0355627
0.0349893
0.0344158
0.0338254
0.0332013
0.0325562
0.0319243
0.0313047
0.0306878
0.0300854
0.0294902
0.0289212
0.0283758
0.0278479
0.027347
0.0268614
0.0264032
0.0259621
0.0255371
0.025125
0.0247174
0.0243127
0.0239042
0.0234884
0.0230553
0.0226044
0.0221269
0.0216165
0.0210609
0.0204353
0.0197795
0.0408951
0.0407019
0.0404193
0.0400801
0.0396986
0.039281
0.0388271
0.0383415
0.0378255
0.0372863
0.0367289
0.0361696
0.0355925
0.0349813
0.0343478
0.0337248
0.0331115
0.0324982
0.0318958
0.0312978
0.0307228
0.0301678
0.0296302
0.0291148
0.0286146
0.0281382
0.0276794
0.0272345
0.0268005
0.026369
0.0259417
0.0255082
0.0250658
0.0246036
0.0241232
0.0236146
0.023071
0.0224796
0.0218154
0.0211186
0.0424842
0.0423006
0.0420309
0.0417063
0.0413392
0.0409369
0.0404993
0.0400305
0.0395317
0.03901
0.0384701
0.0379253
0.0373624
0.0367652
0.0361448
0.0355325
0.0349276
0.0343203
0.033721
0.0331235
0.0325456
0.0319845
0.0314383
0.0309119
0.0303971
0.0299066
0.029431
0.0289669
0.0285116
0.0280599
0.0276104
0.0271526
0.0266835
0.0261904
0.0256811
0.0251416
0.0245647
0.0239373
0.0232342
0.0224963
0.0440734
0.0438993
0.0436424
0.0433311
0.0429786
0.0425919
0.0421705
0.0417187
0.0412375
0.0407332
0.0402107
0.039682
0.0391347
0.0385531
0.037947
0.037347
0.0367521
0.036153
0.0355593
0.0349648
0.0343868
0.0338223
0.0332687
0.0327352
0.0322095
0.0317056
0.0312141
0.0307316
0.0302588
0.0297877
0.0293166
0.0288351
0.0283398
0.027817
0.0272769
0.0267065
0.0260963
0.0254327
0.024691
0.0239117
0.0456632
0.0454982
0.0452533
0.0449555
0.0446178
0.0442466
0.0438418
0.0434072
0.0429437
0.0424573
0.0419522
0.0414403
0.0409097
0.0403457
0.0397545
0.0391679
0.0385846
0.0379954
0.0374093
0.0368202
0.0362447
0.0356796
0.0351223
0.0345828
0.0340483
0.0335327
0.0330258
0.032529
0.0320397
0.0315499
0.0310581
0.0305535
0.0300328
0.029481
0.0289082
0.0283079
0.0276648
0.026965
0.0261847
0.025364
0.0472552
0.0470995
0.0468657
0.0465812
0.046258
0.0459024
0.0455142
0.0450969
0.0446516
0.044184
0.0436961
0.0432011
0.0426875
0.0421409
0.0415667
0.0409953
0.040425
0.0398473
0.0392706
0.0386888
0.0381178
0.0375545
0.0369962
0.0364527
0.0359113
0.0353856
0.0348671
0.0343567
0.0338519
0.0333445
0.0328327
0.032306
0.0317604
0.0311806
0.0305765
0.0299452
0.0292689
0.0285331
0.0277143
0.0268523
0.04885
0.048703
0.0484806
0.0482093
0.0479006
0.0475606
0.047189
0.0467892
0.0463618
0.0459124
0.0454427
0.0449654
0.0444693
0.0439405
0.0433844
0.0428302
0.0422734
0.0417086
0.0411434
0.0405704
0.0400057
0.0394461
0.0388888
0.0383432
0.0377967
0.0372617
0.0367346
0.0362125
0.0356934
0.0351693
0.0346385
0.0340905
0.0335209
0.032914
0.0322794
0.0316168
0.0309073
0.0301358
0.0292788
0.0283756
0.0504496
0.0503109
0.0500998
0.0498415
0.0495473
0.0492229
0.048868
0.0484858
0.048077
0.0476451
0.0471935
0.0467344
0.0462573
0.0457459
0.0452078
0.0446707
0.0441295
0.0435792
0.043028
0.0424651
0.0419078
0.0413537
0.0407995
0.0402532
0.0397037
0.0391626
0.0386273
0.0380946
0.0375623
0.0370226
0.0364738
0.0359052
0.0353125
0.0346793
0.0340151
0.0333206
0.0325786
0.0317719
0.0308772
0.029933
0.0520558
0.0519251
0.051725
0.0514797
0.0511998
0.0508909
0.0505527
0.0501883
0.0497967
0.0493829
0.0489499
0.0485091
0.0480502
0.0475577
0.0470386
0.0465189
0.045994
0.0454586
0.0449215
0.0443723
0.0438239
0.0432768
0.042728
0.0421816
0.0416308
0.0410861
0.0405436
0.0400012
0.0394567
0.0389025
0.0383367
0.0377486
0.0371336
0.0364751
0.0357819
0.0350543
0.0342812
0.0334401
0.0325082
0.0315234
0.0536702
0.0535474
0.0533581
0.0531254
0.0528597
0.0525662
0.0522448
0.0518967
0.0515227
0.0511273
0.0507134
0.0502919
0.0498506
0.0493772
0.0488785
0.0483761
0.0478689
0.047348
0.0468247
0.0462889
0.0457532
0.0452147
0.0446703
0.0441265
0.0435764
0.0430312
0.042482
0.0419308
0.0413753
0.0408075
0.0402257
0.039619
0.0389826
0.0382997
0.0375785
0.0368194
0.0360145
0.0351394
0.0341707
0.0331457
0.0552943
0.0551793
0.0550005
0.0547804
0.0545287
0.0542506
0.0539444
0.0536129
0.0532566
0.0528798
0.0524856
0.0520819
0.0516592
0.0512052
0.0507259
0.0502421
0.0497522
0.0492475
0.0487385
0.048216
0.0476921
0.0471633
0.0466261
0.0460869
0.0455393
0.0449933
0.0444406
0.043882
0.0433164
0.0427362
0.0421393
0.041515
0.0408581
0.0401516
0.0394033
0.0386137
0.0377769
0.0368683
0.0358635
0.0347988
0.0569296
0.0568221
0.0566539
0.056446
0.0562083
0.0559441
0.0556534
0.0553386
0.0550001
0.0546415
0.054266
0.0538809
0.0534774
0.0530437
0.0525834
0.0521191
0.051646
0.0511591
0.0506643
0.050155
0.049643
0.0491246
0.0485961
0.0480628
0.0475197
0.0469727
0.046419
0.0458534
0.0452787
0.044687
0.044076
0.043435
0.0427584
0.0420292
0.0412547
0.0404355
0.0395663
0.0386255
0.0375854
0.0364815
0.0585766
0.058477
0.0583197
0.0581237
0.0578985
0.0576484
0.0573733
0.0570756
0.0567555
0.0564151
0.0560572
0.0556907
0.0553067
0.0548916
0.0544508
0.0540051
0.0535499
0.0530803
0.0526024
0.0521068
0.0516071
0.0510994
0.0505809
0.0500541
0.0495134
0.0489673
0.0484126
0.0478433
0.047261
0.0466587
0.0460346
0.0453776
0.0446822
0.043931
0.043131
0.0422832
0.0413834
0.04041
0.039335
0.0381925
0.0602364
0.060144
0.0599966
0.0598124
0.0596002
0.0593645
0.0591052
0.0588245
0.0585211
0.0581987
0.0578594
0.057512
0.0571459
0.0567503
0.05633
0.0559024
0.0554658
0.0550123
0.0545503
0.0540709
0.0535845
0.0530877
0.0525766
0.0520562
0.0515202
0.0509768
0.0504219
0.0498515
0.0492621
0.04865
0.0480135
0.0473416
0.0466279
0.0458551
0.0450304
0.0441549
0.0432255
0.0422201
0.0411108
0.0399305
0.0619105
0.061825
0.0616872
0.0615145
0.0613154
0.061094
0.0608503
0.0605851
0.0602985
0.059994
0.0596736
0.0593437
0.0589961
0.0586204
0.058219
0.0578107
0.0573913
0.0569557
0.0565085
0.0560438
0.0555704
0.0550852
0.0545834
0.05407
0.0535402
0.0530015
0.0524461
0.0518734
0.0512806
0.0506594
0.0500116
0.0493254
0.048594
0.0477997
0.0469507
0.0460486
0.0450904
0.044054
0.0429112
0.0416939
0.0635997
0.0635207
0.0633922
0.0632311
0.0630453
0.0628377
0.0626081
0.0623585
0.0620888
0.0618023
0.0614991
0.0611869
0.060858
0.0605004
0.0601184
0.0597276
0.0593268
0.0589077
0.0584775
0.0580279
0.0575667
0.057094
0.056602
0.0560954
0.0555728
0.0550373
0.0544841
0.0539086
0.0533113
0.0526848
0.0520273
0.0513277
0.0505789
0.0497623
0.0488898
0.0479623
0.046976
0.0459095
0.0447345
0.0434812
0.0653038
0.065231
0.0651115
0.0649617
0.0647878
0.0645937
0.0643789
0.0641455
0.0638922
0.063622
0.0633369
0.0630419
0.0627298
0.0623908
0.0620261
0.0616529
0.0612695
0.0608686
0.0604537
0.0600192
0.0595723
0.0591098
0.0586274
0.0581304
0.0576138
0.0570835
0.0565313
0.055956
0.055354
0.0547208
0.0540538
0.0533413
0.0525758
0.0517395
0.0508451
0.0498942
0.0488797
0.0477847
0.046579
0.045291
0.0670221
0.066955
0.066844
0.0667047
0.0665431
0.0663629
0.0661624
0.0659435
0.0657059
0.0654527
0.0651837
0.0649058
0.0646117
0.0642898
0.0639431
0.0635882
0.0632207
0.0628363
0.0624381
0.0620188
0.0615849
0.0611334
0.0606597
0.0601714
0.0596628
0.0591358
0.0585872
0.0580108
0.0574074
0.0567675
0.0560914
0.0553663
0.0545835
0.0537289
0.0528141
0.0518404
0.0507983
0.0496778
0.0484431
0.0471217
0.0687537
0.0686921
0.068589
0.06846
0.0683106
0.0681429
0.0679564
0.0677529
0.0675308
0.0672928
0.06704
0.0667793
0.0665016
0.0661981
0.0658694
0.0655308
0.0651806
0.0648117
0.0644272
0.0640226
0.0636001
0.0631597
0.0626979
0.0622189
0.0617162
0.0611937
0.0606476
0.060072
0.0594671
0.0588238
0.0581397
0.0574023
0.0565998
0.0557285
0.0547947
0.0537998
0.0527333
0.0515883
0.0503254
0.0489715
0.0704978
0.0704411
0.0703456
0.070226
0.070088
0.0699335
0.0697607
0.0695709
0.0693638
0.0691422
0.0689056
0.06866
0.068399
0.0681118
0.0678015
0.0674798
0.0671454
0.0667909
0.0664211
0.0660285
0.065619
0.0651889
0.0647379
0.0642683
0.0637746
0.0632578
0.0627133
0.0621401
0.0615334
0.0608842
0.0601921
0.0594432
0.0586246
0.0577367
0.0567849
0.0557701
0.0546817
0.053515
0.0522238
0.0508386
0.0722532
0.0722011
0.0721125
0.0720015
0.0718738
0.0717314
0.0715727
0.0713972
0.0712047
0.0709976
0.0707771
0.0705471
0.0703008
0.0700305
0.069736
0.0694313
0.0691117
0.0687737
0.0684168
0.0680364
0.0676379
0.0672205
0.0667811
0.0663208
0.0658331
0.0653231
0.0647824
0.0642101
0.0636005
0.0629481
0.0622488
0.0614887
0.0606543
0.0597506
0.0587822
0.0577492
0.0566406
0.055452
0.0541357
0.0527212
0.0740189
0.073971
0.0738886
0.0737854
0.0736668
0.0735351
0.0733888
0.0732277
0.0730498
0.0728574
0.0726513
0.0724371
0.0722061
0.0719513
0.0716726
0.0713833
0.0710787
0.0707525
0.0704092
0.0700408
0.0696554
0.0692491
0.0688223
0.0683718
0.0678913
0.0673852
0.0668491
0.066277
0.0656674
0.0650102
0.0643033
0.0635316
0.0626847
0.0617676
0.0607844
0.0597349
0.058608
0.0573987
0.0560591
0.0546173
0.0757938
0.0757495
0.0756726
0.0755764
0.075466
0.0753437
0.0752081
0.0750593
0.0748953
0.0747182
0.0745268
0.0743271
0.0741105
0.0738696
0.0736066
0.0733314
0.0730392
0.0727269
0.072396
0.0720415
0.0716679
0.0712746
0.0708585
0.070417
0.0699442
0.0694439
0.0689102
0.0683407
0.0677296
0.0670707
0.0663564
0.0655705
0.0647136
0.0637853
0.0627891
0.0617251
0.0605821
0.0593534
0.0579923
0.0565252
0.077576
0.0775349
0.077463
0.077373
0.0772699
0.0771559
0.0770298
0.076892
0.0767411
0.0765774
0.0763998
0.076213
0.0760112
0.0757855
0.0755356
0.0752733
0.074994
0.074694
0.0743772
0.0740352
0.0736754
0.0732936
0.0728858
0.0724525
0.0719873
0.0714945
0.0709655
0.0703968
0.0697868
0.0691249
0.0684024
0.0676062
0.0667397
0.0658014
0.0647942
0.0637176
0.0625616
0.0613145
0.0599336
0.058443
0.0793637
0.0793254
0.0792579
0.0791734
0.0790768
0.07897
0.0788521
0.0787235
0.078583
0.078431
0.0782671
0.078094
0.0779045
0.0776917
0.077455
0.077205
0.0769388
0.0766535
0.0763496
0.0760221
0.0756745
0.0753036
0.0749053
0.0744804
0.0740223
0.0735339
0.0730108
0.0724446
0.0718343
0.071168
0.07044
0.0696349
0.0687604
0.0678141
0.0667976
0.0657103
0.0645419
0.0632793
0.0618809
0.0603692
0.0811546
0.0811187
0.0810552
0.0809757
0.0808848
0.0807843
0.0806735
0.0805527
0.0804208
0.0802784
0.080125
0.0799634
0.0797865
0.0795858
0.0793625
0.0791269
0.0788746
0.0786021
0.0783135
0.0779985
0.0776609
0.0773003
0.0769117
0.0764953
0.0760445
0.0755615
0.0750425
0.0744792
0.0738675
0.0731998
0.0724629
0.0716531
0.0707733
0.069821
0.0687974
0.0677014
0.0665222
0.0652462
0.0638326
0.0623019
0.0829461
0.0829124
0.0828526
0.0827776
0.0826918
0.082597
0.0824924
0.0823784
0.0822539
0.0821195
0.0819749
0.0818227
0.0816566
0.081469
0.0812588
0.0810356
0.0807975
0.0805387
0.0802606
0.0799553
0.0796297
0.0792796
0.0789007
0.0784929
0.0780496
0.0775724
0.0770558
0.0764966
0.0758863
0.0752165
0.0744735
0.0736598
0.0727767
0.0718206
0.070792
0.0696891
0.068501
0.0672136
0.0657869
0.0642396
0.0847357
0.0847039
0.0846475
0.0845766
0.0844955
0.0844059
0.0843069
0.0841989
0.0840809
0.0839534
0.0838162
0.0836719
0.0835146
0.0833374
0.0831403
0.0829304
0.0827042
0.0824559
0.0821884
0.0818938
0.0815786
0.0812386
0.0808691
0.0804697
0.080034
0.0795632
0.0790511
0.0784936
0.077886
0.0772129
0.0764678
0.075653
0.0747688
0.0738111
0.0727797
0.0716719
0.0704767
0.0691799
0.0677423
0.0661806
0.0865207
0.0864907
0.0864373
0.0863703
0.0862935
0.0862086
0.0861147
0.0860121
0.0858999
0.0857785
0.0856477
0.08551
0.0853599
0.0851909
0.085003
0.0848028
0.0845869
0.0843503
0.0840936
0.0838098
0.0835049
0.0831743
0.0828138
0.0824225
0.0819942
0.0815305
0.0810243
0.0804706
0.0798645
0.0791878
0.0784446
0.0776314
0.0767484
0.0757912
0.0747592
0.0736485
0.0724477
0.0711434
0.069697
0.0681233
0.0882983
0.0882699
0.0882194
0.088156
0.0880833
0.0880027
0.0879135
0.0878158
0.0877089
0.087593
0.0874679
0.087336
0.0871919
0.0870297
0.0868493
0.0866568
0.0864489
0.0862211
0.0859738
0.0857012
0.0854059
0.0850843
0.0847323
0.0843489
0.0839269
0.0834715
0.0829719
0.0824231
0.0818187
0.081144
0.0804038
0.0795941
0.0787142
0.0777597
0.0767298
0.0756175
0.0744122
0.0731024
0.0716495
0.0700661
0.0900658
0.090039
0.0899912
0.0899312
0.0898622
0.0897857
0.0897008
0.0896078
0.0895057
0.0893949
0.089275
0.0891482
0.0890096
0.0888533
0.0886794
0.0884935
0.0882924
0.0880718
0.087832
0.0875675
0.0872803
0.0869666
0.0866224
0.086247
0.0858342
0.0853846
0.0848913
0.0843486
0.0837494
0.0830799
0.082345
0.0815405
0.0806654
0.0797153
0.0786909
0.0775772
0.0763679
0.0750554
0.0735982
0.0720075
0.0918208
0.0917953
0.0917501
0.0916932
0.0916278
0.0915551
0.0914744
0.0913856
0.0912881
0.091182
0.0910669
0.090945
0.0908113
0.0906605
0.0904924
0.0903124
0.0901173
0.089903
0.0896697
0.0894121
0.089132
0.0888253
0.0884885
0.0881204
0.0877153
0.0872727
0.0867863
0.0862505
0.085658
0.0849955
0.0842675
0.0834697
0.0826008
0.0816564
0.0806369
0.0795253
0.0783156
0.0770015
0.0755418
0.073946
0.0935606
0.0935365
0.0934937
0.0934398
0.0933778
0.0933087
0.0932318
0.0931471
0.0930539
0.0929522
0.0928417
0.0927242
0.0925952
0.0924495
0.092287
0.0921124
0.0919229
0.0917144
0.0914871
0.0912359
0.0909621
0.0906621
0.0903321
0.089971
0.0895731
0.0891377
0.0886586
0.0881302
0.0875453
0.0868909
0.0861709
0.085381
0.0845195
0.0835819
0.082568
0.0814605
0.0802529
0.0789389
0.0774786
0.0758799
0.095283
0.0952601
0.0952196
0.0951686
0.0951097
0.0950441
0.0949709
0.0948901
0.0948009
0.0947035
0.0945973
0.0944841
0.0943595
0.0942187
0.0940614
0.093892
0.0937078
0.0935049
0.0932833
0.0930381
0.0927705
0.0924769
0.0921535
0.0917992
0.0914085
0.0909803
0.0905086
0.089988
0.0894113
0.0887657
0.0880545
0.0872735
0.0864206
0.0854908
0.0844838
0.0833818
0.0821779
0.080866
0.0794069
0.0778075
0.0969858
0.096964
0.0969257
0.0968774
0.0968216
0.0967592
0.0966895
0.0966125
0.0965272
0.0964338
0.0963317
0.0962226
0.0961023
0.0959662
0.0958139
0.0956497
0.0954706
0.0952731
0.095057
0.0948177
0.0945561
0.0942687
0.0939519
0.0936045
0.0932209
0.0928001
0.0923361
0.0918236
0.0912554
0.0906192
0.0899176
0.0891463
0.0883028
0.0873822
0.086383
0.0852878
0.0840892
0.082781
0.0813251
0.0797272
0.0986668
0.0986462
0.0986101
0.0985644
0.0985115
0.0984522
0.0983859
0.0983124
0.0982308
0.0981413
0.0980432
0.0979381
0.0978219
0.0976904
0.097543
0.0973837
0.0972096
0.0970174
0.0968068
0.0965733
0.0963177
0.0960366
0.0957264
0.0953857
0.0950094
0.0945961
0.0941401
0.093636
0.0930768
0.0924504
0.091759
0.0909981
0.0901651
0.0892548
0.0882645
0.0871771
0.0859852
0.0846822
0.0832313
0.0816372
0.100325
0.100305
0.100271
0.100228
0.100178
0.100121
0.100058
0.099988
0.0999101
0.0998242
0.0997301
0.0996288
0.0995166
0.0993895
0.0992469
0.0990925
0.0989234
0.0987364
0.0985312
0.0983035
0.0980539
0.097779
0.0974755
0.0971418
0.0967728
0.0963672
0.0959194
0.095424
0.0948743
0.0942581
0.0935776
0.0928278
0.0920061
0.0911077
0.090127
0.0890483
0.0878642
0.086568
0.0851239
0.0835358
0.101957
0.101939
0.101906
0.101866
0.101818
0.101765
0.101705
0.101638
0.101563
0.101481
0.101391
0.101293
0.101185
0.101062
0.100924
0.100775
0.10061
0.100429
0.100229
0.100007
0.0997634
0.0994948
0.099198
0.0988713
0.0985098
0.0981122
0.0976728
0.0971865
0.0966466
0.0960412
0.095372
0.0946338
0.0938243
0.0929405
0.0919687
0.0908993
0.0897243
0.0884365
0.087001
0.0854211
0.103563
0.103546
0.103515
0.103477
0.103432
0.103381
0.103324
0.10326
0.103189
0.103111
0.103024
0.10293
0.102825
0.102707
0.102574
0.102429
0.102269
0.102093
0.101898
0.101682
0.101445
0.101183
0.100893
0.100573
0.100219
0.0998297
0.099399
0.0989221
0.0983924
0.0977984
0.097141
0.0964149
0.0956178
0.0947467
0.0937865
0.0927282
0.0915638
0.090286
0.0888609
0.0872915
0.105142
0.105125
0.105096
0.10506
0.105018
0.10497
0.104915
0.104855
0.104787
0.104711
0.104628
0.104538
0.104437
0.104323
0.104194
0.104053
0.103899
0.103728
0.103539
0.103328
0.103097
0.102841
0.102558
0.102246
0.1019
0.101519
0.101097
0.10063
0.100111
0.0995287
0.0988834
0.0981698
0.0973852
0.0965268
0.0955793
0.0945334
0.093381
0.0921149
0.090702
0.0891452
0.106691
0.106675
0.106648
0.106614
0.106574
0.106528
0.106477
0.106419
0.106354
0.106282
0.106202
0.106115
0.106018
0.105908
0.105784
0.105648
0.105498
0.105332
0.105148
0.104944
0.104718
0.104469
0.104193
0.103888
0.10355
0.103178
0.102765
0.102308
0.1018
0.101231
0.100598
0.099897
0.0991253
0.0982799
0.0973458
0.0963134
0.0951744
0.0939215
0.0925228
0.0909807
0.10821
0.108195
0.10817
0.108137
0.1081
0.108056
0.108008
0.107953
0.107891
0.107822
0.107745
0.107662
0.107568
0.107462
0.107342
0.107211
0.107066
0.106905
0.106727
0.106528
0.106309
0.106066
0.105797
0.1055
0.10517
0.104806
0.104402
0.103956
0.103459
0.102905
0.102284
0.101595
0.100837
0.100005
0.0990848
0.0980672
0.0969423
0.0957046
0.0943218
0.0927964
0.109698
0.109684
0.10966
0.10963
0.109594
0.109553
0.109507
0.109455
0.109396
0.10933
0.109256
0.109176
0.109086
0.108984
0.108869
0.108742
0.108602
0.108445
0.108272
0.10808
0.107867
0.107631
0.107369
0.107079
0.106757
0.106402
0.106008
0.105572
0.105087
0.104546
0.103937
0.103263
0.102518
0.1017
0.100795
0.0997935
0.0986847
0.0974634
0.096098
0.0945911
0.111154
0.111141
0.111119
0.11109
0.111056
0.111018
0.110974
0.110924
0.110868
0.110805
0.110735
0.110658
0.110572
0.110473
0.110362
0.110239
0.110104
0.109953
0.109785
0.109598
0.109391
0.109162
0.108907
0.108625
0.108312
0.107966
0.107581
0.107155
0.106682
0.106154
0.105559
0.104899
0.104169
0.103364
0.102476
0.101491
0.1004
0.0991968
0.0978501
0.0963633
0.112578
0.112565
0.112544
0.112517
0.112486
0.112449
0.112408
0.112361
0.112307
0.112247
0.11218
0.112106
0.112023
0.111929
0.111822
0.111703
0.111573
0.111426
0.111264
0.111083
0.110882
0.11066
0.110412
0.110138
0.109833
0.109496
0.109121
0.108706
0.108244
0.107729
0.107148
0.106503
0.105789
0.104999
0.104127
0.10316
0.102088
0.100904
0.0995772
0.0981119
0.113968
0.113957
0.113937
0.113912
0.113882
0.113848
0.113808
0.113763
0.113713
0.113655
0.113591
0.113521
0.113441
0.11335
0.113247
0.113133
0.113007
0.112866
0.112709
0.112533
0.112339
0.112123
0.111882
0.111616
0.11132
0.110992
0.110627
0.110223
0.109773
0.10927
0.108705
0.108075
0.107377
0.106603
0.105747
0.104798
0.103748
0.102584
0.101278
0.0998355
0.115325
0.115314
0.115296
0.115272
0.115244
0.115212
0.115175
0.115132
0.115084
0.115029
0.114968
0.1149
0.114824
0.114737
0.114638
0.114528
0.114406
0.11427
0.114118
0.113949
0.113761
0.113551
0.113318
0.11306
0.112772
0.112453
0.112099
0.111705
0.111267
0.110778
0.110228
0.109614
0.108933
0.108176