/*--------------------------------*- C++ -*----------------------------------*\
| =========                 |                                                 |
| \\      /  F ield         | OpenFOAM: The Open Source CFD Toolbox           |
|  \\    /   O peration     | Version:  5.x                                   |
|   \\  /    A nd           | Web:      www.OpenFOAM.org                      |
|    \\/     M anipulation  |                                                 |
\*---------------------------------------------------------------------------*/
FoamFile
{
    version     2.0;
    format      ascii;
    class       volScalarField;
    location    "400";
    object      p;
}
// * * * * * * * * * * * * * * * * * * * * * * * * * * * * * * * * * * * * * //

dimensions      [0 2 -2 0 0 0 0];

internalField   nonuniform List<scalar> 
26000
(
-8.48462e-05
0.0301554
-0.156162
-0.414428
-0.65375
-0.853785
-1.01834
-1.16052
-1.27729
-1.37872
-1.46533
-1.5392
-1.60912
-1.65439
-1.70543
-1.75711
-1.79695
-1.83141
-1.86147
-1.88901
-1.91349
-1.9345
-1.95342
-1.96983
-1.98425
-1.99706
-2.00814
-2.01792
-2.02611
-2.03279
-2.03852
-2.04301
-2.04665
-2.04911
-2.05076
-2.05159
-2.05171
-2.05067
-2.04971
-2.0418
-0.350525
-0.234074
-0.236731
-0.324757
-0.464906
-0.626722
-0.791584
-0.946931
-1.08788
-1.21086
-1.31786
-1.40746
-1.49047
-1.56051
-1.62196
-1.677
-1.72639
-1.76911
-1.80599
-1.83921
-1.86801
-1.89372
-1.91635
-1.93616
-1.95383
-1.96912
-1.98274
-1.99448
-2.00458
-2.01303
-2.02017
-2.02612
-2.03091
-2.03462
-2.03726
-2.03909
-2.04002
-2.04011
-2.03987
-2.03426
-0.620278
-0.506864
-0.440476
-0.438782
-0.499473
-0.603317
-0.733249
-0.871328
-1.00774
-1.13365
-1.24646
-1.34333
-1.42968
-1.50872
-1.57643
-1.63558
-1.68848
-1.73552
-1.77593
-1.8119
-1.84353
-1.87128
-1.89596
-1.91753
-1.93666
-1.95341
-1.9681
-1.98097
-1.99205
-2.00147
-2.00944
-2.01612
-2.02159
-2.02592
-2.02916
-2.03147
-2.03292
-2.03336
-2.03329
-2.02962
-0.761942
-0.679323
-0.609077
-0.571229
-0.577514
-0.625448
-0.709099
-0.815019
-0.933149
-1.05178
-1.16431
-1.26502
-1.35596
-1.44227
-1.51788
-1.5825
-1.6398
-1.69146
-1.7363
-1.77623
-1.81122
-1.84191
-1.86929
-1.89323
-1.91448
-1.93307
-1.94936
-1.9637
-1.97609
-1.98674
-1.99577
-2.00341
-2.00974
-2.01484
-2.01881
-2.02176
-2.02379
-2.02475
-2.0252
-2.02284
-0.872385
-0.810426
-0.749625
-0.702365
-0.680505
-0.689197
-0.731152
-0.800593
-0.891371
-0.99314
-1.09729
-1.19636
-1.28801
-1.3781
-1.45954
-1.52963
-1.59121
-1.64716
-1.69616
-1.73994
-1.77837
-1.81202
-1.84213
-1.86849
-1.89188
-1.9124
-1.93033
-1.94618
-1.95991
-1.97179
-1.98193
-1.99055
-1.99777
-2.00368
-2.00838
-2.01198
-2.0146
-2.01613
-2.01705
-2.01574
-0.958336
-0.911041
-0.861458
-0.816485
-0.784374
-0.771362
-0.783575
-0.821089
-0.882538
-0.961577
-1.0503
-1.14152
-1.22919
-1.31904
-1.40312
-1.47724
-1.54257
-1.60235
-1.65513
-1.70257
-1.74442
-1.78105
-1.81395
-1.84278
-1.86839
-1.89091
-1.91057
-1.928
-1.94312
-1.95629
-1.9676
-1.97725
-1.98541
-1.99215
-1.99764
-2.00191
-2.00516
-2.00727
-2.0087
-2.00827
-1.02831
-0.991243
-0.95121
-0.912114
-0.878884
-0.856429
-0.850814
-0.8649
-0.900668
-0.956061
-1.02551
-1.10394
-1.18301
-1.26836
-1.35148
-1.42738
-1.49521
-1.55801
-1.61398
-1.66469
-1.70976
-1.7493
-1.78496
-1.81627
-1.84414
-1.86871
-1.89017
-1.90924
-1.92581
-1.94031
-1.95282
-1.96354
-1.97268
-1.9803
-1.98659
-1.99158
-1.99547
-1.9982
-2.00016
-2.00049
-1.08677
-1.0571
-1.02458
-0.991656
-0.961066
-0.936126
-0.921545
-0.920772
-0.937192
-0.971832
-1.02174
-1.08483
-1.15196
-1.22902
-1.30754
-1.38242
-1.4508
-1.51537
-1.57367
-1.62702
-1.67493
-1.71716
-1.75545
-1.78919
-1.81928
-1.84593
-1.86921
-1.88996
-1.90803
-1.9239
-1.93764
-1.94947
-1.95962
-1.96815
-1.97527
-1.98101
-1.98557
-1.98892
-1.99145
-1.99247
-1.13657
-1.11244
-1.08577
-1.05827
-1.03145
-1.00743
-0.989435
-0.980474
-0.983989
-1.00258
-1.03532
-1.08293
-1.13663
-1.20271
-1.27351
-1.34452
-1.41123
-1.47589
-1.53534
-1.59046
-1.64062
-1.68513
-1.7258
-1.76181
-1.79406
-1.82273
-1.84782
-1.87026
-1.88985
-1.9071
-1.92211
-1.93508
-1.94627
-1.95572
-1.96369
-1.9702
-1.97546
-1.97945
-1.98258
-1.98423
-1.17962
-1.15974
-1.13766
-1.11469
-1.09165
-1.0699
-1.05154
-1.03884
-1.03469
-1.04209
-1.06129
-1.09506
-1.13565
-1.18958
-1.25057
-1.31533
-1.37817
-1.44105
-1.50021
-1.55598
-1.60759
-1.65384
-1.69649
-1.73451
-1.76873
-1.79932
-1.82617
-1.85027
-1.87136
-1.89001
-1.90629
-1.92041
-1.93265
-1.94305
-1.95189
-1.95918
-1.96516
-1.96981
-1.97354
-1.9758
-1.21726
-1.20074
-1.1823
-1.16305
-1.1434
-1.12429
-1.10701
-1.09323
-1.08508
-1.08536
-1.09484
-1.11733
-1.14637
-1.18843
-1.23877
-1.29563
-1.35277
-1.41208
-1.46943
-1.5246
-1.57669
-1.62394
-1.66804
-1.7077
-1.74363
-1.77596
-1.80445
-1.83014
-1.8527
-1.87271
-1.89025
-1.90552
-1.91882
-1.93017
-1.93989
-1.94798
-1.95468
-1.96
-1.96435
-1.9672
-1.25048
-1.23665
-1.22116
-1.20495
-1.18824
-1.17168
-1.15608
-1.14262
-1.13281
-1.12898
-1.132
-1.14595
-1.16564
-1.19712
-1.23706
-1.28528
-1.33555
-1.38983
-1.44395
-1.49722
-1.54873
-1.59614
-1.64102
-1.68184
-1.71911
-1.75293
-1.78289
-1.81004
-1.83399
-1.85531
-1.87408
-1.89048
-1.90483
-1.91714
-1.92774
-1.93662
-1.94405
-1.95005
-1.95502
-1.95845
-1.28003
-1.26838
-1.2553
-1.2416
-1.22739
-1.21313
-1.19936
-1.18689
-1.17678
-1.17087
-1.16991
-1.17779
-1.19041
-1.21311
-1.24372
-1.28338
-1.32629
-1.37458
-1.42433
-1.47455
-1.5244
-1.57108
-1.61601
-1.65741
-1.69558
-1.73056
-1.76174
-1.79019
-1.81539
-1.83794
-1.85788
-1.87538
-1.89075
-1.90399
-1.91546
-1.92513
-1.9333
-1.93997
-1.94557
-1.94957
-1.30649
-1.29664
-1.28554
-1.27392
-1.26182
-1.2496
-1.23758
-1.22636
-1.21669
-1.20995
-1.20677
-1.21056
-1.21811
-1.23394
-1.25673
-1.28852
-1.32421
-1.36608
-1.41072
-1.45697
-1.50422
-1.5493
-1.5935
-1.63485
-1.67342
-1.70916
-1.74127
-1.77078
-1.79708
-1.82074
-1.84176
-1.86029
-1.87664
-1.89079
-1.90311
-1.91356
-1.92245
-1.92978
-1.93601
-1.94058
-1.33032
-1.32197
-1.31252
-1.30264
-1.29232
-1.28186
-1.27144
-1.26153
-1.25263
-1.24581
-1.24156
-1.24272
-1.24682
-1.25753
-1.27409
-1.29905
-1.32811
-1.36365
-1.40284
-1.44455
-1.48843
-1.53117
-1.57391
-1.61458
-1.65299
-1.68905
-1.72174
-1.75205
-1.77925
-1.80385
-1.82584
-1.84531
-1.86258
-1.8776
-1.89073
-1.90195
-1.91154
-1.91952
-1.92637
-1.93149
-1.35189
-1.34479
-1.33672
-1.3283
-1.3195
-1.31054
-1.30156
-1.2929
-1.28492
-1.27842
-1.27381
-1.27338
-1.27524
-1.28228
-1.29408
-1.3134
-1.33669
-1.36633
-1.40012
-1.43704
-1.47705
-1.51686
-1.5575
-1.59687
-1.6346
-1.67052
-1.70342
-1.73421
-1.76207
-1.78744
-1.81025
-1.83056
-1.84866
-1.86448
-1.87839
-1.89033
-1.9006
-1.90922
-1.91667
-1.92232
-1.3715
-1.36545
-1.35855
-1.35137
-1.34385
-1.33619
-1.32846
-1.32095
-1.3139
-1.30794
-1.30338
-1.30207
-1.30254
-1.30703
-1.31534
-1.33015
-1.34863
-1.37304
-1.40175
-1.43393
-1.46983
-1.50632
-1.54437
-1.58193
-1.61848
-1.65379
-1.68652
-1.71747
-1.74572
-1.77164
-1.79511
-1.81613
-1.83497
-1.85151
-1.86614
-1.87875
-1.88967
-1.89889
-1.90693
-1.9131
-1.38939
-1.38423
-1.37833
-1.37219
-1.36576
-1.35921
-1.35259
-1.3461
-1.33995
-1.33461
-1.33034
-1.3286
-1.32827
-1.33104
-1.33686
-1.34819
-1.36277
-1.38271
-1.40687
-1.43457
-1.46635
-1.49935
-1.53447
-1.56981
-1.60475
-1.63904
-1.67122
-1.702
-1.73036
-1.75661
-1.78055
-1.80213
-1.82158
-1.83876
-1.85403
-1.86727
-1.87879
-1.88859
-1.89718
-1.90385
-1.40577
-1.40137
-1.39632
-1.39107
-1.38557
-1.37998
-1.3743
-1.36873
-1.36341
-1.35871
-1.35483
-1.35296
-1.35222
-1.35387
-1.35795
-1.36663
-1.37816
-1.3944
-1.4146
-1.43825
-1.46609
-1.49558
-1.52761
-1.56045
-1.59344
-1.62635
-1.65764
-1.68792
-1.71612
-1.74245
-1.76667
-1.78864
-1.80859
-1.8263
-1.84213
-1.85593
-1.868
-1.87833
-1.88744
-1.89458
-1.4208
-1.41705
-1.41273
-1.40824
-1.40355
-1.39877
-1.39393
-1.38916
-1.38458
-1.38049
-1.37706
-1.37523
-1.37432
-1.37528
-1.37817
-1.38489
-1.39405
-1.4073
-1.42414
-1.44424
-1.46845
-1.49457
-1.52348
-1.55369
-1.58449
-1.61574
-1.64584
-1.67533
-1.70311
-1.72928
-1.75357
-1.77577
-1.79606
-1.8142
-1.83049
-1.84478
-1.85734
-1.86816
-1.87774
-1.88533
-1.43465
-1.43145
-1.42775
-1.42392
-1.41992
-1.41584
-1.41172
-1.40765
-1.40374
-1.40022
-1.39724
-1.39556
-1.39464
-1.39518
-1.39728
-1.40256
-1.40992
-1.42077
-1.43485
-1.4519
-1.47285
-1.49585
-1.52174
-1.54926
-1.57777
-1.60713
-1.63581
-1.66427
-1.69137
-1.71717
-1.74132
-1.76359
-1.78407
-1.80251
-1.81916
-1.83386
-1.84685
-1.8581
-1.86812
-1.87611
-1.44742
-1.44471
-1.44155
-1.43827
-1.43486
-1.4314
-1.42789
-1.42444
-1.42112
-1.41812
-1.41557
-1.41408
-1.41325
-1.41357
-1.41516
-1.41938
-1.42539
-1.43436
-1.44617
-1.46067
-1.47876
-1.49893
-1.52199
-1.54689
-1.57306
-1.60043
-1.62752
-1.65473
-1.68095
-1.70616
-1.72999
-1.75214
-1.77268
-1.79129
-1.80821
-1.82322
-1.83657
-1.84819
-1.85858
-1.86695
-1.45923
-1.45693
-1.45424
-1.45145
-1.44854
-1.44561
-1.44264
-1.43972
-1.43692
-1.43439
-1.43225
-1.43097
-1.43027
-1.43049
-1.43177
-1.43523
-1.44022
-1.44772
-1.45771
-1.47007
-1.48571
-1.50338
-1.52384
-1.54626
-1.57013
-1.59545
-1.62084
-1.64665
-1.67183
-1.69628
-1.71961
-1.74149
-1.76193
-1.78059
-1.79766
-1.8129
-1.82653
-1.83846
-1.84918
-1.85787
-1.47018
-1.46823
-1.46594
-1.46357
-1.46111
-1.45862
-1.45611
-1.45366
-1.45131
-1.4492
-1.44743
-1.44638
-1.44583
-1.44604
-1.44713
-1.45004
-1.45427
-1.46063
-1.46915
-1.47977
-1.49332
-1.5088
-1.52692
-1.54703
-1.56871
-1.592
-1.61565
-1.63997
-1.66396
-1.6875
-1.71019
-1.73165
-1.75186
-1.77044
-1.78755
-1.80294
-1.81676
-1.82893
-1.83992
-1.84889
-1.48034
-1.4787
-1.47675
-1.47474
-1.47266
-1.47057
-1.46846
-1.46641
-1.46446
-1.46272
-1.46127
-1.46045
-1.46006
-1.4603
-1.46129
-1.46381
-1.46747
-1.47294
-1.48028
-1.48948
-1.50127
-1.51487
-1.53092
-1.54893
-1.56855
-1.58987
-1.61178
-1.63456
-1.65728
-1.6798
-1.70171
-1.72262
-1.74248
-1.76087
-1.77792
-1.79335
-1.80729
-1.81964
-1.83083
-1.84004
-1.48978
-1.48841
-1.48676
-1.48507
-1.48331
-1.48155
-1.4798
-1.4781
-1.47649
-1.47507
-1.47392
-1.4733
-1.47308
-1.47338
-1.47432
-1.47656
-1.47979
-1.48457
-1.49097
-1.499
-1.50932
-1.52131
-1.53555
-1.55167
-1.5694
-1.58886
-1.60907
-1.6303
-1.6517
-1.67312
-1.69415
-1.7144
-1.73379
-1.75189
-1.76878
-1.78416
-1.79814
-1.8106
-1.82193
-1.83133
-1.49857
-1.49743
-1.49604
-1.49462
-1.49314
-1.49168
-1.49023
-1.48883
-1.48753
-1.48639
-1.4855
-1.48507
-1.48499
-1.48536
-1.48629
-1.48833
-1.49124
-1.49548
-1.50112
-1.5082
-1.5173
-1.52791
-1.54058
-1.55502
-1.57103
-1.58876
-1.60735
-1.62706
-1.64712
-1.66738
-1.68747
-1.70697
-1.7258
-1.74351
-1.76014
-1.7754
-1.78934
-1.80183
-1.81325
-1.82277
-1.50676
-1.50582
-1.50466
-1.50347
-1.50224
-1.50103
-1.49984
-1.4987
-1.49766
-1.49677
-1.49611
-1.49585
-1.49591
-1.49636
-1.4973
-1.49919
-1.50185
-1.50566
-1.5107
-1.517
-1.52507
-1.53452
-1.54583
-1.55879
-1.57325
-1.58938
-1.60645
-1.62469
-1.64342
-1.66251
-1.6816
-1.70029
-1.71848
-1.73571
-1.75202
-1.76706
-1.78089
-1.79336
-1.80479
-1.8144
-1.51441
-1.51364
-1.51267
-1.51168
-1.51067
-1.50968
-1.50871
-1.5078
-1.50698
-1.50631
-1.50584
-1.50574
-1.50592
-1.50645
-1.50741
-1.5092
-1.51167
-1.51514
-1.51968
-1.52533
-1.53255
-1.54102
-1.55115
-1.56281
-1.57589
-1.59057
-1.60621
-1.62305
-1.6405
-1.65842
-1.67649
-1.69432
-1.7118
-1.72849
-1.74439
-1.75915
-1.77281
-1.78518
-1.79658
-1.80621
-1.52155
-1.52093
-1.52013
-1.51932
-1.51849
-1.51769
-1.51691
-1.5162
-1.51558
-1.51509
-1.51479
-1.51482
-1.51511
-1.51571
-1.5167
-1.51842
-1.52073
-1.52392
-1.52806
-1.53318
-1.53969
-1.54731
-1.55643
-1.56696
-1.57881
-1.59217
-1.60651
-1.62204
-1.63824
-1.65501
-1.67205
-1.689
-1.70573
-1.72183
-1.73726
-1.75168
-1.76509
-1.77732
-1.78862
-1.79823
-1.52823
-1.52773
-1.52709
-1.52642
-1.52575
-1.52511
-1.52451
-1.52396
-1.5235
-1.52318
-1.52303
-1.52317
-1.52356
-1.52423
-1.52524
-1.5269
-1.5291
-1.53206
-1.53587
-1.54054
-1.54644
-1.55334
-1.5616
-1.57113
-1.5819
-1.59407
-1.60721
-1.62152
-1.63655
-1.65221
-1.66823
-1.68428
-1.70024
-1.71569
-1.7306
-1.74463
-1.75774
-1.76976
-1.78092
-1.79046
-1.53448
-1.5341
-1.53357
-1.53304
-1.53251
-1.53201
-1.53155
-1.53115
-1.53083
-1.53065
-1.53062
-1.53087
-1.53134
-1.53206
-1.5331
-1.53472
-1.53681
-1.53959
-1.54311
-1.54741
-1.55279
-1.55908
-1.56658
-1.57526
-1.58506
-1.59617
-1.60822
-1.6214
-1.63533
-1.64992
-1.66495
-1.6801
-1.69527
-1.71005
-1.7244
-1.73799
-1.75076
-1.76252
-1.77349
-1.78291
-1.54034
-1.54004
-1.53963
-1.53921
-1.5388
-1.53842
-1.53808
-1.53781
-1.53762
-1.53755
-1.53763
-1.53797
-1.5385
-1.53927
-1.54034
-1.54192
-1.54392
-1.54654
-1.54982
-1.5538
-1.55874
-1.56451
-1.57136
-1.57927
-1.58822
-1.59839
-1.60945
-1.62159
-1.63448
-1.64807
-1.66213
-1.67641
-1.69077
-1.70487
-1.71864
-1.73174
-1.74413
-1.7556
-1.76632
-1.77559
-1.54583
-1.54561
-1.5453
-1.54497
-1.54466
-1.54439
-1.54416
-1.54399
-1.5439
-1.54393
-1.54411
-1.54452
-1.54511
-1.54592
-1.54701
-1.54855
-1.55048
-1.55296
-1.55604
-1.55974
-1.5643
-1.56961
-1.57589
-1.58313
-1.59134
-1.60065
-1.61082
-1.62201
-1.63395
-1.64658
-1.65973
-1.67314
-1.68672
-1.70012
-1.71328
-1.72588
-1.73784
-1.74898
-1.75943
-1.76851
-1.55097
-1.55083
-1.55059
-1.55035
-1.55013
-1.54995
-1.54981
-1.54973
-1.54973
-1.54985
-1.5501
-1.55057
-1.55121
-1.55206
-1.55315
-1.55467
-1.55653
-1.55889
-1.56179
-1.56525
-1.56948
-1.57438
-1.58017
-1.58682
-1.59436
-1.60292
-1.61228
-1.6226
-1.63365
-1.64539
-1.65767
-1.67025
-1.68306
-1.69576
-1.70831
-1.72037
-1.73189
-1.74266
-1.7528
-1.76165
-1.5558
-1.55571
-1.55555
-1.55538
-1.55524
-1.55513
-1.55507
-1.55507
-1.55515
-1.55534
-1.55566
-1.55618
-1.55685
-1.55773
-1.55883
-1.56031
-1.56211
-1.56437
-1.5671
-1.57035
-1.57429
-1.57884
-1.58418
-1.59032
-1.59727
-1.60515
-1.61378
-1.62331
-1.63354
-1.64445
-1.6559
-1.66769
-1.67974
-1.69176
-1.70368
-1.71521
-1.72626
-1.73664
-1.74645
-1.75504
-1.56033
-1.5603
-1.56019
-1.56009
-1.56001
-1.55997
-1.55997
-1.56004
-1.56018
-1.56043
-1.5608
-1.56137
-1.56207
-1.56296
-1.56407
-1.56552
-1.56727
-1.56942
-1.57201
-1.57507
-1.57875
-1.58299
-1.58795
-1.59362
-1.60004
-1.60731
-1.61528
-1.62409
-1.63357
-1.6437
-1.65437
-1.66541
-1.67673
-1.68808
-1.69938
-1.71036
-1.72094
-1.73091
-1.74035
-1.74866
-1.56458
-1.56459
-1.56454
-1.56449
-1.56447
-1.56448
-1.56454
-1.56467
-1.56487
-1.56517
-1.56558
-1.56618
-1.5669
-1.56781
-1.56891
-1.57033
-1.57202
-1.57409
-1.57655
-1.57944
-1.58289
-1.58684
-1.59145
-1.59672
-1.60266
-1.60938
-1.61675
-1.62491
-1.6337
-1.64311
-1.65306
-1.66337
-1.674
-1.68469
-1.69538
-1.70581
-1.7159
-1.72545
-1.73451
-1.74251
-1.56858
-1.56862
-1.56862
-1.56861
-1.56864
-1.5687
-1.56881
-1.56898
-1.56923
-1.56957
-1.57002
-1.57064
-1.57138
-1.57229
-1.57339
-1.57478
-1.57642
-1.5784
-1.58074
-1.58347
-1.58672
-1.59042
-1.59472
-1.59961
-1.60512
-1.61135
-1.61818
-1.62574
-1.63389
-1.64264
-1.6519
-1.66154
-1.6715
-1.68156
-1.69165
-1.70154
-1.71114
-1.72025
-1.72892
-1.7366
-1.57232
-1.5724
-1.57243
-1.57247
-1.57254
-1.57264
-1.57279
-1.57301
-1.57329
-1.57366
-1.57414
-1.57478
-1.57553
-1.57645
-1.57753
-1.57889
-1.58048
-1.58238
-1.58461
-1.5872
-1.59026
-1.59373
-1.59774
-1.60231
-1.60743
-1.61321
-1.61955
-1.62656
-1.63413
-1.64226
-1.65089
-1.65989
-1.66921
-1.67866
-1.68817
-1.69753
-1.70663
-1.71531
-1.72358
-1.73092
-1.57584
-1.57595
-1.57601
-1.57609
-1.57619
-1.57633
-1.57651
-1.57676
-1.57707
-1.57748
-1.57798
-1.57863
-1.57939
-1.5803
-1.58137
-1.5827
-1.58423
-1.58605
-1.58819
-1.59064
-1.59352
-1.59679
-1.60055
-1.60481
-1.60958
-1.61495
-1.62084
-1.62735
-1.63439
-1.64195
-1.64998
-1.65838
-1.66711
-1.67597
-1.68492
-1.69375
-1.70237
-1.7106
-1.71847
-1.72547
-1.57915
-1.57927
-1.57937
-1.57947
-1.5796
-1.57977
-1.57999
-1.58026
-1.5806
-1.58103
-1.58154
-1.5822
-1.58296
-1.58387
-1.58492
-1.58622
-1.5877
-1.58945
-1.59149
-1.59382
-1.59654
-1.59961
-1.60314
-1.60712
-1.61157
-1.61658
-1.62206
-1.62811
-1.63465
-1.64168
-1.64917
-1.657
-1.66516
-1.67347
-1.68187
-1.69019
-1.69833
-1.70612
-1.71358
-1.72023
-1.58225
-1.5824
-1.58251
-1.58264
-1.5828
-1.58299
-1.58323
-1.58353
-1.58389
-1.58433
-1.58486
-1.58552
-1.58628
-1.58718
-1.58821
-1.58947
-1.5909
-1.59259
-1.59453
-1.59675
-1.59932
-1.60222
-1.60553
-1.60926
-1.61342
-1.61808
-1.62319
-1.62882
-1.6349
-1.64145
-1.64842
-1.65573
-1.66335
-1.67112
-1.67901
-1.68683
-1.6945
-1.70187
-1.70892
-1.71522
-1.58516
-1.58532
-1.58546
-1.58561
-1.58579
-1.58601
-1.58627
-1.58658
-1.58696
-1.58741
-1.58795
-1.58861
-1.58936
-1.59025
-1.59126
-1.59249
-1.59387
-1.59548
-1.59734
-1.59945
-1.60189
-1.60462
-1.60773
-1.61123
-1.61512
-1.61947
-1.62423
-1.62947
-1.63514
-1.64123
-1.64773
-1.65454
-1.66165
-1.66893
-1.67631
-1.68366
-1.69087
-1.69781
-1.70447
-1.71041
-1.58789
-1.58807
-1.58823
-1.58839
-1.58859
-1.58882
-1.5891
-1.58943
-1.58982
-1.59028
-1.59082
-1.59148
-1.59223
-1.59309
-1.59409
-1.59527
-1.59661
-1.59816
-1.59993
-1.60194
-1.60425
-1.60683
-1.60976
-1.61303
-1.61668
-1.62075
-1.62519
-1.63007
-1.63535
-1.64103
-1.64707
-1.65343
-1.66006
-1.66686
-1.67377
-1.68066
-1.68743
-1.69396
-1.70022
-1.70582
-1.59046
-1.59064
-1.59081
-1.591
-1.59121
-1.59145
-1.59174
-1.59208
-1.59248
-1.59295
-1.59349
-1.59415
-1.59488
-1.59574
-1.5967
-1.59785
-1.59914
-1.60063
-1.60232
-1.60423
-1.60642
-1.60886
-1.61161
-1.61469
-1.61811
-1.62191
-1.62606
-1.63061
-1.63553
-1.64082
-1.64645
-1.65238
-1.65857
-1.66491
-1.67137
-1.67782
-1.68417
-1.69029
-1.69617
-1.70142
-1.59286
-1.59305
-1.59324
-1.59343
-1.59366
-1.59391
-1.59421
-1.59456
-1.59497
-1.59544
-1.59598
-1.59663
-1.59735
-1.59818
-1.59913
-1.60024
-1.60148
-1.60291
-1.60452
-1.60634
-1.60841
-1.61072
-1.61332
-1.61621
-1.61941
-1.62297
-1.62684
-1.6311
-1.63568
-1.64061
-1.64586
-1.65138
-1.65715
-1.66307
-1.6691
-1.67513
-1.68107
-1.6868
-1.6923
-1.69722
-1.59511
-1.59531
-1.59551
-1.59571
-1.59595
-1.59621
-1.59652
-1.59688
-1.59728
-1.59775
-1.59829
-1.59893
-1.59964
-1.60045
-1.60137
-1.60244
-1.60364
-1.60501
-1.60655
-1.60828
-1.61025
-1.61242
-1.61487
-1.61759
-1.6206
-1.62393
-1.62755
-1.63152
-1.6358
-1.64039
-1.64528
-1.65042
-1.6558
-1.66132
-1.66695
-1.67257
-1.67812
-1.68349
-1.68862
-1.69321
-1.59722
-1.59743
-1.59763
-1.59784
-1.59809
-1.59836
-1.59867
-1.59903
-1.59944
-1.59991
-1.60044
-1.60107
-1.60176
-1.60256
-1.60345
-1.60448
-1.60563
-1.60694
-1.60841
-1.61006
-1.61192
-1.61399
-1.61629
-1.61885
-1.62167
-1.62479
-1.62818
-1.63189
-1.63588
-1.64016
-1.64471
-1.6495
-1.65451
-1.65965
-1.6649
-1.67015
-1.67533
-1.68033
-1.68512
-1.68939
-1.59919
-1.59941
-1.59961
-1.59984
-1.60008
-1.60036
-1.60068
-1.60104
-1.60145
-1.60191
-1.60244
-1.60305
-1.60373
-1.6045
-1.60537
-1.60637
-1.60747
-1.60872
-1.61013
-1.61169
-1.61346
-1.61541
-1.61759
-1.62
-1.62265
-1.62557
-1.62874
-1.6322
-1.63592
-1.63991
-1.64416
-1.64862
-1.65328
-1.65807
-1.66296
-1.66784
-1.67266
-1.67732
-1.68178
-1.68575
-1.60104
-1.60126
-1.60147
-1.6017
-1.60195
-1.60223
-1.60255
-1.60291
-1.60332
-1.60378
-1.6043
-1.6049
-1.60556
-1.60631
-1.60714
-1.6081
-1.60916
-1.61036
-1.6117
-1.61319
-1.61487
-1.61671
-1.61877
-1.62104
-1.62352
-1.62626
-1.62923
-1.63246
-1.63594
-1.63966
-1.64361
-1.64776
-1.6521
-1.65656
-1.6611
-1.66565
-1.67014
-1.67447
-1.6786
-1.68228
-1.60278
-1.60299
-1.60321
-1.60344
-1.60369
-1.60398
-1.60429
-1.60465
-1.60505
-1.60551
-1.60602
-1.6066
-1.60725
-1.60797
-1.60878
-1.60971
-1.61072
-1.61187
-1.61315
-1.61457
-1.61616
-1.6179
-1.61984
-1.62197
-1.62431
-1.62688
-1.62965
-1.63267
-1.63592
-1.63939
-1.64307
-1.64693
-1.65097
-1.65511
-1.65934
-1.66356
-1.66773
-1.67175
-1.67558
-1.67898
-1.60439
-1.60461
-1.60483
-1.60506
-1.60532
-1.6056
-1.60592
-1.60627
-1.60667
-1.60712
-1.60762
-1.60819
-1.60881
-1.60952
-1.6103
-1.61118
-1.61216
-1.61326
-1.61448
-1.61582
-1.61733
-1.61898
-1.62081
-1.62281
-1.62501
-1.62742
-1.63002
-1.63284
-1.63587
-1.6391
-1.64253
-1.64613
-1.64988
-1.65373
-1.65765
-1.66157
-1.66544
-1.66917
-1.67271
-1.67584
-1.60591
-1.60612
-1.60634
-1.60658
-1.60683
-1.60712
-1.60743
-1.60778
-1.60817
-1.60861
-1.6091
-1.60965
-1.61026
-1.61094
-1.61169
-1.61255
-1.61348
-1.61453
-1.61569
-1.61697
-1.6184
-1.61996
-1.62168
-1.62357
-1.62563
-1.62789
-1.63033
-1.63296
-1.63579
-1.6388
-1.64199
-1.64534
-1.64883
-1.6524
-1.65605
-1.65968
-1.66327
-1.66672
-1.66999
-1.67287
-1.60732
-1.60754
-1.60776
-1.60799
-1.60824
-1.60853
-1.60884
-1.60918
-1.60957
-1.61
-1.61047
-1.61101
-1.6116
-1.61225
-1.61298
-1.6138
-1.61469
-1.61569
-1.6168
-1.61801
-1.61937
-1.62084
-1.62247
-1.62425
-1.62619
-1.6283
-1.63058
-1.63305
-1.63568
-1.63849
-1.64146
-1.64457
-1.64781
-1.65114
-1.65451
-1.65788
-1.6612
-1.66439
-1.6674
-1.67004
-1.60864
-1.60886
-1.60907
-1.60931
-1.60956
-1.60984
-1.61015
-1.61049
-1.61086
-1.61128
-1.61174
-1.61227
-1.61283
-1.61347
-1.61417
-1.61495
-1.61581
-1.61676
-1.61781
-1.61897
-1.62025
-1.62164
-1.62318
-1.62485
-1.62667
-1.62866
-1.63079
-1.63309
-1.63555
-1.63817
-1.64094
-1.64383
-1.64684
-1.64992
-1.65305
-1.65617
-1.65923
-1.66217
-1.66495
-1.66737
-1.60988
-1.61009
-1.6103
-1.61053
-1.61079
-1.61106
-1.61136
-1.6117
-1.61206
-1.61247
-1.61292
-1.61343
-1.61398
-1.61459
-1.61526
-1.61601
-1.61683
-1.61774
-1.61874
-1.61983
-1.62105
-1.62236
-1.62381
-1.62539
-1.6271
-1.62896
-1.63096
-1.63311
-1.6354
-1.63784
-1.64042
-1.6431
-1.6459
-1.64875
-1.65165
-1.65454
-1.65737
-1.66008
-1.66262
-1.66483
-1.61103
-1.61124
-1.61145
-1.61168
-1.61193
-1.6122
-1.61249
-1.61282
-1.61318
-1.61358
-1.61401
-1.6145
-1.61503
-1.61562
-1.61626
-1.61698
-1.61776
-1.61863
-1.61958
-1.62062
-1.62177
-1.62301
-1.62438
-1.62586
-1.62747
-1.62921
-1.63108
-1.63309
-1.63523
-1.63751
-1.6399
-1.6424
-1.64499
-1.64764
-1.65032
-1.65298
-1.65559
-1.65809
-1.66042
-1.66244
-1.6121
-1.61231
-1.61252
-1.61274
-1.61299
-1.61325
-1.61354
-1.61386
-1.61421
-1.6146
-1.61502
-1.61549
-1.616
-1.61657
-1.61718
-1.61787
-1.61862
-1.61944
-1.62035
-1.62133
-1.62242
-1.6236
-1.62488
-1.62628
-1.62779
-1.62942
-1.63117
-1.63305
-1.63505
-1.63716
-1.63939
-1.64171
-1.64411
-1.64656
-1.64905
-1.65151
-1.65391
-1.6562
-1.65834
-1.66017
-1.6131
-1.6133
-1.61351
-1.61373
-1.61397
-1.61423
-1.61451
-1.61483
-1.61517
-1.61554
-1.61595
-1.6164
-1.61689
-1.61744
-1.61803
-1.61869
-1.6194
-1.62019
-1.62105
-1.62198
-1.62301
-1.62412
-1.62533
-1.62664
-1.62806
-1.62959
-1.63123
-1.63298
-1.63485
-1.63682
-1.63889
-1.64104
-1.64327
-1.64554
-1.64783
-1.6501
-1.65231
-1.65441
-1.65637
-1.65804
-1.61404
-1.61423
-1.61444
-1.61465
-1.61489
-1.61514
-1.61542
-1.61572
-1.61605
-1.61641
-1.61681
-1.61724
-1.61772
-1.61824
-1.61881
-1.61944
-1.62011
-1.62086
-1.62168
-1.62256
-1.62354
-1.62458
-1.62573
-1.62696
-1.62829
-1.62973
-1.63126
-1.6329
-1.63463
-1.63647
-1.63839
-1.64039
-1.64246
-1.64456
-1.64667
-1.64876
-1.6508
-1.65272
-1.65451
-1.65602
-1.6149
-1.6151
-1.6153
-1.61551
-1.61574
-1.61598
-1.61625
-1.61655
-1.61687
-1.61722
-1.6176
-1.61802
-1.61848
-1.61897
-1.61952
-1.62012
-1.62077
-1.62148
-1.62225
-1.62309
-1.62401
-1.625
-1.62607
-1.62724
-1.62848
-1.62983
-1.63126
-1.63279
-1.63441
-1.63612
-1.63791
-1.63976
-1.64167
-1.64361
-1.64557
-1.64749
-1.64936
-1.65113
-1.65275
-1.65412
-1.61571
-1.6159
-1.6161
-1.6163
-1.61653
-1.61677
-1.61703
-1.61731
-1.61762
-1.61796
-1.61833
-1.61873
-1.61917
-1.61965
-1.62017
-1.62074
-1.62136
-1.62203
-1.62277
-1.62356
-1.62443
-1.62537
-1.62638
-1.62747
-1.62864
-1.6299
-1.63124
-1.63267
-1.63418
-1.63577
-1.63743
-1.63915
-1.64092
-1.64271
-1.64451
-1.64629
-1.648
-1.64962
-1.65109
-1.65233
-1.61647
-1.61665
-1.61684
-1.61704
-1.61726
-1.61749
-1.61775
-1.61802
-1.61832
-1.61865
-1.619
-1.61939
-1.61981
-1.62027
-1.62076
-1.62131
-1.6219
-1.62254
-1.62324
-1.62399
-1.62481
-1.62569
-1.62664
-1.62767
-1.62877
-1.62995
-1.6312
-1.63254
-1.63394
-1.63542
-1.63696
-1.63856
-1.64019
-1.64185
-1.64351
-1.64514
-1.64671
-1.64819
-1.64953
-1.65064
-1.61717
-1.61734
-1.61753
-1.61772
-1.61793
-1.61816
-1.61841
-1.61868
-1.61896
-1.61928
-1.61962
-1.61999
-1.62039
-1.62083
-1.62131
-1.62183
-1.62239
-1.623
-1.62366
-1.62437
-1.62514
-1.62598
-1.62687
-1.62784
-1.62887
-1.62997
-1.63114
-1.63239
-1.6337
-1.63507
-1.63651
-1.63798
-1.6395
-1.64103
-1.64256
-1.64405
-1.6455
-1.64684
-1.64806
-1.64906
-1.61782
-1.61799
-1.61817
-1.61836
-1.61856
-1.61878
-1.61902
-1.61928
-1.61956
-1.61986
-1.62019
-1.62055
-1.62093
-1.62135
-1.6218
-1.6223
-1.62283
-1.62341
-1.62404
-1.62471
-1.62544
-1.62622
-1.62707
-1.62797
-1.62894
-1.62998
-1.63107
-1.63223
-1.63345
-1.63473
-1.63606
-1.63743
-1.63883
-1.64024
-1.64165
-1.64302
-1.64434
-1.64557
-1.64667
-1.64757
-1.61842
-1.61859
-1.61876
-1.61895
-1.61914
-1.61936
-1.61959
-1.61984
-1.62011
-1.6204
-1.62071
-1.62105
-1.62142
-1.62182
-1.62226
-1.62273
-1.62323
-1.62378
-1.62437
-1.62501
-1.6257
-1.62644
-1.62724
-1.62809
-1.62899
-1.62996
-1.63098
-1.63207
-1.6332
-1.63439
-1.63563
-1.63689
-1.63819
-1.63949
-1.64078
-1.64205
-1.64325
-1.64437
-1.64537
-1.64617
-1.61898
-1.61914
-1.61931
-1.61949
-1.61968
-1.61989
-1.62011
-1.62035
-1.62061
-1.62089
-1.62119
-1.62152
-1.62187
-1.62225
-1.62267
-1.62312
-1.6236
-1.62412
-1.62468
-1.62528
-1.62593
-1.62663
-1.62738
-1.62817
-1.62903
-1.62993
-1.63089
-1.6319
-1.63296
-1.63406
-1.6352
-1.63638
-1.63757
-1.63877
-1.63996
-1.64112
-1.64222
-1.64324
-1.64414
-1.64486
-1.6195
-1.61966
-1.61982
-1.61999
-1.62018
-1.62038
-1.62059
-1.62082
-1.62107
-1.62134
-1.62163
-1.62195
-1.62228
-1.62265
-1.62304
-1.62347
-1.62392
-1.62442
-1.62495
-1.62552
-1.62613
-1.62679
-1.62749
-1.62824
-1.62904
-1.62989
-1.63078
-1.63172
-1.63271
-1.63373
-1.63479
-1.63588
-1.63698
-1.63809
-1.63919
-1.64025
-1.64125
-1.64217
-1.64299
-1.64363
-1.61998
-1.62013
-1.62029
-1.62046
-1.62064
-1.62083
-1.62104
-1.62126
-1.6215
-1.62176
-1.62203
-1.62234
-1.62266
-1.62301
-1.62338
-1.62379
-1.62422
-1.62469
-1.62519
-1.62573
-1.62631
-1.62693
-1.62759
-1.62829
-1.62904
-1.62983
-1.63067
-1.63154
-1.63246
-1.63341
-1.6344
-1.6354
-1.63642
-1.63744
-1.63845
-1.63942
-1.64034
-1.64117
-1.64191
-1.64248
-1.62043
-1.62057
-1.62073
-1.62089
-1.62106
-1.62125
-1.62145
-1.62166
-1.62189
-1.62214
-1.6224
-1.62269
-1.623
-1.62333
-1.62369
-1.62407
-1.62448
-1.62493
-1.6254
-1.62591
-1.62646
-1.62704
-1.62766
-1.62832
-1.62902
-1.62977
-1.63054
-1.63136
-1.63222
-1.6331
-1.63401
-1.63494
-1.63588
-1.63682
-1.63774
-1.63863
-1.63947
-1.64023
-1.64089
-1.6414
-1.62084
-1.62098
-1.62113
-1.62129
-1.62145
-1.62163
-1.62182
-1.62203
-1.62225
-1.62249
-1.62274
-1.62302
-1.62331
-1.62363
-1.62397
-1.62433
-1.62472
-1.62514
-1.62559
-1.62607
-1.62659
-1.62714
-1.62772
-1.62834
-1.629
-1.62969
-1.63042
-1.63118
-1.63198
-1.6328
-1.63364
-1.6345
-1.63537
-1.63623
-1.63708
-1.63789
-1.63866
-1.63934
-1.63994
-1.64038
-1.62122
-1.62136
-1.6215
-1.62165
-1.62181
-1.62199
-1.62217
-1.62237
-1.62258
-1.62281
-1.62305
-1.62331
-1.62359
-1.62389
-1.62422
-1.62456
-1.62494
-1.62533
-1.62576
-1.62621
-1.6267
-1.62722
-1.62777
-1.62835
-1.62896
-1.62961
-1.63029
-1.631
-1.63174
-1.6325
-1.63328
-1.63408
-1.63488
-1.63567
-1.63645
-1.63719
-1.63789
-1.63851
-1.63904
-1.63943
-1.62158
-1.62171
-1.62185
-1.62199
-1.62215
-1.62231
-1.62249
-1.62268
-1.62288
-1.6231
-1.62333
-1.62358
-1.62385
-1.62414
-1.62444
-1.62477
-1.62513
-1.6255
-1.62591
-1.62634
-1.62679
-1.62728
-1.6278
-1.62834
-1.62892
-1.62952
-1.63016
-1.63082
-1.63151
-1.63222
-1.63294
-1.63368
-1.63441
-1.63514
-1.63586
-1.63653
-1.63716
-1.63773
-1.6382
-1.63855
-1.6219
-1.62203
-1.62216
-1.6223
-1.62245
-1.62261
-1.62278
-1.62296
-1.62316
-1.62337
-1.62359
-1.62383
-1.62408
-1.62436
-1.62465
-1.62496
-1.6253
-1.62565
-1.62603
-1.62644
-1.62687
-1.62733
-1.62781
-1.62833
-1.62887
-1.62943
-1.63003
-1.63064
-1.63128
-1.63194
-1.63261
-1.63329
-1.63397
-1.63464
-1.63529
-1.63591
-1.63648
-1.63699
-1.63741
-1.63771
-1.6222
-1.62233
-1.62245
-1.62259
-1.62273
-1.62288
-1.62305
-1.62322
-1.62341
-1.62361
-1.62382
-1.62405
-1.62429
-1.62455
-1.62483
-1.62513
-1.62545
-1.62579
-1.62615
-1.62653
-1.62694
-1.62737
-1.62782
-1.6283
-1.62881
-1.62934
-1.62989
-1.63047
-1.63106
-1.63167
-1.63229
-1.63292
-1.63355
-1.63417
-1.63476
-1.63533
-1.63585
-1.6363
-1.63668
-1.63694
-1.62248
-1.6226
-1.62272
-1.62285
-1.62299
-1.62314
-1.62329
-1.62346
-1.62364
-1.62383
-1.62403
-1.62425
-1.62448
-1.62473
-1.625
-1.62528
-1.62558
-1.6259
-1.62624
-1.6266
-1.62699
-1.62739
-1.62782
-1.62827
-1.62875
-1.62924
-1.62976
-1.6303
-1.63085
-1.63142
-1.63199
-1.63257
-1.63315
-1.63371
-1.63426
-1.63478
-1.63524
-1.63565
-1.63599
-1.63621
-1.62274
-1.62285
-1.62297
-1.62309
-1.62323
-1.62337
-1.62352
-1.62368
-1.62385
-1.62403
-1.62423
-1.62443
-1.62466
-1.62489
-1.62514
-1.62541
-1.6257
-1.626
-1.62632
-1.62667
-1.62703
-1.62741
-1.62781
-1.62824
-1.62868
-1.62915
-1.62963
-1.63013
-1.63064
-1.63117
-1.6317
-1.63224
-1.63277
-1.63329
-1.63379
-1.63426
-1.63468
-1.63505
-1.63534
-1.63553
-1.62297
-1.62308
-1.62319
-1.62331
-1.62344
-1.62358
-1.62372
-1.62388
-1.62404
-1.62422
-1.6244
-1.6246
-1.62481
-1.62504
-1.62528
-1.62553
-1.6258
-1.62609
-1.6264
-1.62672
-1.62706
-1.62742
-1.6278
-1.6282
-1.62861
-1.62905
-1.6295
-1.62997
-1.63044
-1.63093
-1.63143
-1.63192
-1.63241
-1.63289
-1.63334
-1.63377
-1.63415
-1.63448
-1.63474
-1.6349
-1.62319
-1.62329
-1.6234
-1.62352
-1.62364
-1.62377
-1.62391
-1.62406
-1.62421
-1.62438
-1.62456
-1.62475
-1.62495
-1.62517
-1.62539
-1.62564
-1.62589
-1.62617
-1.62646
-1.62676
-1.62708
-1.62742
-1.62778
-1.62815
-1.62854
-1.62895
-1.62937
-1.62981
-1.63025
-1.63071
-1.63116
-1.63162
-1.63207
-1.63251
-1.63293
-1.63331
-1.63366
-1.63395
-1.63418
-1.63431
-1.62338
-1.62348
-1.62359
-1.6237
-1.62382
-1.62395
-1.62408
-1.62422
-1.62437
-1.62453
-1.6247
-1.62488
-1.62508
-1.62528
-1.6255
-1.62573
-1.62597
-1.62623
-1.62651
-1.6268
-1.6271
-1.62742
-1.62776
-1.62811
-1.62847
-1.62886
-1.62925
-1.62965
-1.63007
-1.63049
-1.63091
-1.63134
-1.63175
-1.63215
-1.63253
-1.63288
-1.6332
-1.63345
-1.63365
-1.63376
-1.62356
-1.62366
-1.62376
-1.62387
-1.62398
-1.62411
-1.62423
-1.62437
-1.62452
-1.62467
-1.62483
-1.62501
-1.62519
-1.62539
-1.62559
-1.62581
-1.62604
-1.62629
-1.62655
-1.62682
-1.62711
-1.62741
-1.62773
-1.62806
-1.6284
-1.62876