/*--------------------------------*- C++ -*----------------------------------*\
| =========                 |                                                 |
| \\      /  F ield         | OpenFOAM: The Open Source CFD Toolbox           |
|  \\    /   O peration     | Version:  5.x                                   |
|   \\  /    A nd           | Web:      www.OpenFOAM.org                      |
|    \\/     M anipulation  |                                                 |
\*---------------------------------------------------------------------------*/
FoamFile
{
    version     2.0;
    format      ascii;
    class       surfaceScalarField;
    location    "400";
    object      phi;
}
// * * * * * * * * * * * * * * * * * * * * * * * * * * * * * * * * * * * * * //

dimensions      [0 3 -1 0 0 0 0];

internalField   nonuniform List<scalar> 
51690
(
3.35044e-06
-0.000198043
0.000194688
0.000144215
-0.000140864
0.00023449
-9.02769e-05
0.000290534
-5.60447e-05
0.000323467
-3.2934e-05
0.00034162
-1.81533e-05
0.000353126
-1.1505e-05
0.000358417
-5.29062e-06
0.000362831
-4.41252e-06
0.000366033
-3.20086e-06
0.000369723
-3.68864e-06
0.000374985
-5.26169e-06
0.000374981
4.95286e-09
0.000381093
-6.11182e-06
0.000387963
-6.86852e-06
0.000394024
-6.06081e-06
0.000400955
-6.93021e-06
0.000408539
-7.584e-06
0.00041697
-8.42962e-06
0.000425919
-8.94863e-06
0.000435568
-9.64885e-06
0.000445682
-1.01132e-05
0.000456243
-1.05607e-05
0.000467163
-1.09195e-05
0.000478299
-1.1136e-05
0.000489697
-1.13981e-05
0.000501088
-1.13903e-05
0.000512452
-1.13642e-05
0.000523574
-1.1121e-05
0.000534434
-1.08603e-05
0.000544785
-1.03504e-05
0.000554475
-9.68978e-06
0.000563304
-8.82935e-06
0.000571043
-7.73831e-06
0.000577557
-6.5137e-06
0.000582467
-4.90998e-06
0.000585747
-3.28032e-06
0.000586373
-6.25876e-07
0.000582163
4.21019e-06
3.5638e-06
0.000578599
-2.39095e-05
-0.000267264
9.31333e-05
5.34707e-05
-0.000218243
0.000124928
-0.000161734
0.000185281
-0.000116398
0.000232022
-7.96752e-05
0.000267392
-5.35242e-05
0.000294108
-3.82206e-05
0.00031411
-2.52915e-05
0.000329715
-2.00173e-05
0.000342504
-1.59884e-05
0.000353561
-1.47449e-05
0.000364535
-1.62355e-05
0.000373574
-9.03317e-06
0.000383698
-1.62354e-05
0.000394041
-1.72111e-05
0.000404715
-1.67345e-05
0.000415448
-1.76632e-05
0.00042686
-1.89948e-05
0.000438768
-2.03371e-05
0.000450895
-2.10758e-05
0.000463734
-2.24867e-05
0.000476749
-2.31283e-05
0.000490179
-2.39902e-05
0.000503897
-2.46371e-05
0.000517709
-2.49479e-05
0.000531806
-2.54946e-05
0.000545762
-2.53454e-05
0.00055967
-2.52721e-05
0.000573268
-2.47192e-05
0.000586491
-2.40835e-05
0.000599178
-2.30372e-05
0.000611083
-2.15938e-05
0.000622101
-1.98471e-05
0.000631898
-1.75351e-05
0.000640373
-1.49891e-05
0.000647135
-1.16717e-05
0.000651969
-8.11381e-06
0.000654971
-3.62854e-06
0.000654948
4.23375e-06
4.2562e-06
0.000654255
-2.85636e-05
-0.000312032
7.33339e-05
2.37545e-05
-0.00027056
8.13459e-05
-0.000219325
0.000139693
-0.000174745
0.000192373
-0.000132355
0.00023744
-9.85916e-05
0.00027457
-7.53505e-05
0.000304126
-5.48476e-05
0.00032776
-4.36511e-05
0.000346745
-3.49724e-05
0.000362676
-3.06755e-05
0.000376608
-3.01668e-05
0.00038924
-2.16648e-05
0.000401006
-2.80011e-05
0.00041308
-2.92854e-05
0.000425406
-2.90591e-05
0.000437657
-2.99147e-05
0.000450205
-3.15418e-05
0.000463126
-3.32575e-05
0.000476365
-3.43146e-05
0.000490154
-3.62761e-05
0.0005042
-3.71739e-05
0.000518629
-3.84189e-05
0.000533344
-3.93517e-05
0.000548201
-3.98047e-05
0.00056329
-4.05835e-05
0.000578297
-4.03518e-05
0.00059324
-4.02153e-05
0.000607893
-3.93724e-05
0.000622151
-3.83413e-05
0.000635866
-3.67518e-05
0.000648793
-3.45211e-05
0.000660803
-3.18567e-05
0.000671579
-2.83112e-05
0.000680976
-2.43856e-05
0.000688634
-1.93301e-05
0.00069432
-1.37993e-05
0.000697697
-7.00544e-06
0.0006979
4.03042e-06
5.58675e-06
0.000696569
-2.6347e-05
-0.000344876
5.91923e-05
1.12789e-05
-0.000308186
5.51196e-05
-0.000263165
0.000103998
-0.000223623
0.000153288
-0.000181645
0.000200169
-0.000145472
0.00024262
-0.000117802
0.000279103
-9.13307e-05
0.000309986
-7.45339e-05
0.000335476
-6.04621e-05
0.000356973
-5.2172e-05
0.000375277
-4.8471e-05
0.000392046
-3.84331e-05
0.000407132
-4.3087e-05
0.000421624
-4.37766e-05
0.000435939
-4.33741e-05
0.000450102
-4.40772e-05
0.000464316
-4.57553e-05
0.00047873
-4.76716e-05
0.000493354
-4.89387e-05
0.000508405
-5.13268e-05
0.000523682
-5.24503e-05
0.000539275
-5.40119e-05
0.000555124
-5.51998e-05
0.000571096
-5.57769e-05
0.000587263
-5.67502e-05
0.000603353
-5.64416e-05
0.000619355
-5.62172e-05
0.000635063
-5.50799e-05
0.000650347
-5.36254e-05
0.000665063
-5.14674e-05
0.00067896
-4.8418e-05
0.000691896
-4.47927e-05
0.000703556
-3.99716e-05
0.000713773
-3.46022e-05
0.000722195
-2.77514e-05
0.00072857
-2.01747e-05
0.000732545
-1.09798e-05
0.000733364
3.21156e-06
6.92813e-06
0.000732022
-2.23414e-05
-0.000372172
4.96373e-05
7.58729e-06
-0.000338114
4.22585e-05
-0.000297836
8.23645e-05
-0.000263729
0.000125622
-0.000224902
0.00017009
-0.00018994
0.000213675
-0.000161387
0.000253926
-0.000131581
0.000290177
-0.000110786
0.000321413
-9.16973e-05
0.000348445
-7.92043e-05
0.000371373
-7.13992e-05
0.00039245
-5.95093e-05
0.000411317
-6.19541e-05
0.000428844
-6.13033e-05
0.00044547
-6.00001e-05
0.000461737
-6.03436e-05
0.000477768
-6.1786e-05
0.000493775
-6.36787e-05
0.000509855
-6.50182e-05
0.000526188
-6.76592e-05
0.000542688
-6.89503e-05
0.000559425
-7.07486e-05
0.000576363
-7.21375e-05
0.000593397
-7.28113e-05
0.000610572
-7.3925e-05
0.00062766
-7.35294e-05
0.00064463
-7.31869e-05
0.000661292
-7.17426e-05
0.000677507
-6.98402e-05
0.000693127
-6.70868e-05
0.000707905
-6.31962e-05
0.00072168
-5.85683e-05
0.000734141
-5.24321e-05
0.00074509
-4.55514e-05
0.000754181
-3.68419e-05
0.000761141
-2.71344e-05
0.00076561
-1.54496e-05
0.000766948
1.87353e-06
8.18488e-06
0.000765691
-1.84095e-05
-0.000396367
4.26052e-05
7.25991e-06
-0.000363783
3.62635e-05
-0.000326839
6.98442e-05
-0.000297309
0.000107209
-0.000262267
0.000147518
-0.000230249
0.000189403
-0.000203272
0.000230499
-0.000172677
0.000269715
-0.000150002
0.00030518
-0.000127163
0.000337018
-0.000111042
0.000364477
-9.88581e-05
0.000389979
-8.50109e-05
0.000412939
-8.49145e-05
0.000433995
-8.2359e-05
0.000453362
-7.93671e-05
0.000472063
-7.90438e-05
0.000490186
-7.99094e-05
0.000508034
-8.15258e-05
0.000525781
-8.27648e-05
0.000543569
-8.54471e-05
0.000561438
-8.68191e-05
0.000579439
-8.87499e-05
0.000597567
-9.0265e-05
0.000615746
-9.09903e-05
0.000633998
-9.21766e-05
0.000652139
-9.16708e-05
0.000670121
-9.11689e-05
0.000687768
-8.9389e-05
0.00070493
-8.70026e-05
0.000721457
-8.36137e-05
0.000737109
-7.88478e-05
0.00075171
-7.31691e-05
0.000764953
-6.56748e-05
0.000776617
-5.72155e-05
0.000786354
-4.65791e-05
0.00079387
-3.46503e-05
0.0007988
-2.03791e-05
0.000800578
9.5723e-08
9.32953e-06
0.000799433
-1.47135e-05
-0.000418731
3.70774e-05
8.53158e-06
-0.000387028
3.41184e-05
-0.000352426
6.32714e-05
-0.000326462
9.59121e-05
-0.000294907
0.000131958
-0.000266295
0.000170838
-0.000242152
0.000210769
-0.000212608
0.000250767
-0.00019
0.000288661
-0.000165056
0.000324058
-0.00014644
0.000355444
-0.000130244
0.000385122
-0.000114689
0.000412231
-0.000112023
0.000437123
-0.000107251
0.000459622
-0.000101866
0.000481127
-0.000100549
0.000501669
-0.000100451
0.000521648
-0.000101504
0.00054132
-0.000102437
0.00056078
-0.000104906
0.000580202
-0.000106242
0.000599626
-0.000108173
0.000619078
-0.000109717
0.000638517
-0.00011043
0.000657947
-0.000111606
0.00067723
-0.000110954
0.000696301
-0.00011024
0.000714999
-0.000108087
0.000733169
-0.000105173
0.000750652
-0.000101097
0.000767213
-9.54089e-05
0.000782664
-8.86193e-05
0.000796701
-7.9712e-05
0.000809086
-6.96003e-05
0.000819469
-5.69623e-05
0.000827536
-4.2717e-05
0.000832911
-2.57546e-05
0.000835079
-2.07185e-06
1.03561e-05
0.000834052
-1.12852e-05
-0.000440018
3.25727e-05
1.05794e-05
-0.000408893
3.41484e-05
-0.000375995
6.04581e-05
-0.000352772
8.96955e-05
-0.000324145
0.000122156
-0.000298755
0.000157834
-0.00027783
0.000195603
-0.000250377
0.000234846
-0.000229244
0.000273541
-0.000203751
0.000311074
-0.000183973
0.00034543
-0.0001646
0.000378661
-0.000147921
0.000409643
-0.000143005
0.000438403
-0.00013601
0.000464265
-0.000127728
0.000488875
-0.000125159
0.00051214
-0.000123716
0.000534543
-0.000123906
0.000556418
-0.000124313
0.000577796
-0.000126284
0.000598993
-0.000127439
0.00062003
-0.00012921
0.000640972
-0.000130659
0.00066182
-0.000131277
0.000682554
-0.00013234
0.000703089
-0.000131488
0.000723345
-0.000130496
0.000743179
-0.000127921
0.000762435
-0.000124429
0.000780945
-0.000119606
0.000798477
-0.000112941
0.000814827
-0.00010497
0.000829698
-9.45828e-05
0.000842832
-8.27339e-05
0.000853879
-6.80093e-05
0.000862507
-5.13449e-05
0.00086833
-3.15771e-05
0.000870861
-4.60269e-06
1.12623e-05
0.000869954
-8.09133e-06
-0.000460711
2.87843e-05
1.30268e-05
-0.000430011
3.54526e-05
-0.00039842
6.00236e-05
-0.000377343
8.69863e-05
-0.000351107
0.000116764
-0.000328533
0.000149653
-0.000310719
0.000185047
-0.000285771
0.000222723
-0.000266919
0.000261046
-0.000242075
0.000299433
-0.00022236
0.000335693
-0.000200859
0.000371607
-0.000183835
0.000405886
-0.000177283
0.000438246
-0.000168371
0.000467487
-0.000156969
0.000495361
-0.000153034
0.000521584
-0.000149939
0.000546672
-0.000148994
0.000571015
-0.000148656
0.000594559
-0.000149827
0.000617762
-0.000150642
0.00064062
-0.000152068
0.000663241
-0.00015328
0.000685665
-0.000153701
0.000707852
-0.000154527
0.000729771
-0.000153407
0.000751328
-0.000152053
0.000772401
-0.000148994
0.000792833
-0.000144861
0.000812451
-0.000139225
0.000831029
-0.000131519
0.000848345
-0.000122286
0.000864105
-0.000110343
0.000878033
-9.66616e-05
0.000889778
-7.9754e-05
0.00089899
-6.05572e-05
0.000905273
-3.78599e-05
0.000908158
-7.48826e-06
1.20441e-05
0.000907377
-5.0842e-06
-0.000481138
2.55107e-05
1.56981e-05
-0.000450793
3.75433e-05
-0.000420266
6.11251e-05
-0.000400924
8.66729e-05
-0.000376655
0.000114613
-0.000356473
0.000145356
-0.000341462
0.000178631
-0.000319046
0.000214518
-0.000302805
0.000251822
-0.000279379
0.000290129
-0.000260667
0.000327338
-0.000238068
0.000365009
-0.000221506
0.000401829
-0.000214103
0.000437282
-0.000203824
0.000469695
-0.000189381
0.000500809
-0.000184148
0.000530101
-0.000179232
0.000558058
-0.00017695
0.000585089
-0.000175687
0.000611031
-0.000175769
0.000636469
-0.00017608
0.000661363
-0.000176962
0.000685858
-0.000177775
0.000710038
-0.00017788
0.000733839
-0.000178328
0.00075729
-0.000176858
0.000780281
-0.000175044
0.00080271
-0.000171423
0.000824422
-0.000166573
0.000845242
-0.000160044
0.000864949
-0.000151226
0.000883306
-0.000140643
0.000900022
-0.000127059
0.0009148
-0.000111439
0.000927287
-9.22412e-05
0.000937117
-7.03872e-05
0.000943883
-4.46255e-05
0.000947127
-1.07325e-05
1.26946e-05
0.000946476
-2.21918e-06
-0.000501535
2.26167e-05
1.85114e-05
-0.000471524
4.0155e-05
-0.000441909
6.32596e-05
-0.000424029
8.80181e-05
-0.000401414
0.00011481
-0.000383265
0.00014406
-0.000370712
0.000175684
-0.000350669
0.00020994
-0.000337061
0.000246019
-0.000315458
0.000283709
-0.000298357
0.000321167
-0.000275527
0.000359785
-0.000260124
0.000398361
-0.000252679
0.000436259
-0.000241722
0.000471459
-0.00022458
0.000505606
-0.000218295
0.000537933
-0.000211558
0.000568835
-0.000207852
0.000598703
-0.000205555
0.00062723
-0.000204296
0.000655106
-0.000203956
0.000682241
-0.000204096
0.000708807
-0.000204342
0.000734929
-0.000204001
0.000760514
-0.000203914
0.000785653
-0.000201997
0.000810219
-0.00019961
0.000834133
-0.000195337
0.000857243
-0.000189683
0.000879368
-0.000182169
0.000900297
-0.000172154
0.000919777
-0.000160123
0.000937522
-0.000144803
0.000953214
-0.000127131
0.000966497
-0.000105525
0.000976987
-8.08773e-05
0.000984266
-5.19044e-05
0.000987883
-1.43492e-05
1.32035e-05
0.000987374
5.40952e-07
-0.000522085
2.00086e-05
2.14284e-05
-0.000492411
4.3139e-05
-0.00046362
6.61261e-05
-0.000447016
9.05469e-05
-0.000425834
0.000116725
-0.000409443
0.000145051
-0.000399037
0.000175531
-0.000381149
0.000208505
-0.000370036
0.000243451
-0.000350404
0.000280334
-0.000335241
0.000317629
-0.000312822
0.000356602
-0.000299096
0.000396249
-0.000292327
0.000435929
-0.000281402
0.000473432
-0.000262083
0.000510266
-0.000255129
0.00054545
-0.000246742
0.000579256
-0.000241657
0.00061201
-0.000238309
0.000643247
-0.000235533
0.000673721
-0.00023443
0.000703276
-0.000233651
0.000732099
-0.000233164
0.000760343
-0.000232246
0.000787885
-0.000231456
0.000814874
-0.000228986
0.000841162
-0.000225898
0.000866698
-0.000220873
0.00089133
-0.000214316
0.000914874
-0.000205713
0.000937126
-0.000194407
0.00095782
-0.000180817
0.000976673
-0.000163657
0.000993349
-0.000143807
0.00100749
-0.000119664
0.00101869
-9.20755e-05
0.00102651
-5.9733e-05
0.00103053
-1.83593e-05
1.35574e-05
0.00103017
3.22678e-06
-0.000542931
1.76195e-05
2.44324e-05
-0.000513617
4.64106e-05
-0.000485598
6.95427e-05
-0.000470148
9.39568e-05
-0.000450249
0.000119925
-0.000435411
0.000147789
-0.000426902
0.000177592
-0.000410953
0.000209694
-0.000402138
0.000243764
-0.000384473
0.000279893
-0.000371369
0.000316867
-0.000349796
0.000355846
-0.000338076
0.00039606
-0.00033254
0.000436941
-0.000322283
0.000476253
-0.000301396
0.000515354
-0.00029423
0.000553115
-0.000284503
0.00058967
-0.000278212
0.000625262
-0.000273902
0.000659255
-0.000269526
0.000692428
-0.000267603
0.000724543
-0.000265766
0.00075578
-0.000264402
0.000786314
-0.000262779
0.000815978
-0.00026112
0.000844976
-0.000257984
0.00087314
-0.000254062
0.000900438
-0.00024817
0.000926722
-0.000240599
0.000951803
-0.000230794
0.000975488
-0.000218091
0.000997491
-0.00020282
0.00101754
-0.000183705
0.00103527
-0.000161542
0.00105033
-0.000134724
0.00106229
-0.000104035
0.00107071
-6.81529e-05
0.00107514
-2.27898e-05
1.37398e-05
0.00107496
5.86324e-06
-0.000564194
1.53998e-05
2.75179e-05
-0.000535271
4.9921e-05
-0.000508001
7.33983e-05
-0.000493625
9.80555e-05
-0.000474906
0.000124121
-0.000461476
0.000151889
-0.00045467
0.000181414
-0.000440477
0.000213039
-0.000433763
0.000246555
-0.000417989
0.000282126
-0.000406941
0.000318808
-0.000386477
0.000357659
-0.000376927
0.000398133
-0.000373014
0.000439782
-0.000363933
0.00048047
-0.000342083
0.000521416
-0.000335176
0.000561418
-0.000324506
0.00060049
-0.000317283
0.000638784
-0.000312196
0.000675499
-0.000306241
0.000711406
-0.000303509
0.000746169
-0.000300529
0.000779945
-0.000298177
0.00081291
-0.000295745
0.000844848
-0.000293057
0.000876008
-0.000289145
0.000906196
-0.000284249
0.000935398
-0.000277373
0.000963467
-0.000268668
0.000990208
-0.000257536
0.00101544
-0.000243321
0.00103885
-0.000226236
0.00106019
-0.000205039
0.00107906
-0.000180416
0.00109511
-0.000150773
0.00110789
-0.000116814
0.00111695
-7.72091e-05
0.00112183
-2.76717e-05
1.37314e-05
0.00112184
8.4706e-06
-0.000585977
1.33127e-05
3.06848e-05
-0.000557486
5.3642e-05
-0.000530958
7.76239e-05
-0.000517607
0.000102719
-0.000500001
0.000129122
-0.000487878
0.000157084
-0.000482632
0.000186658
-0.000470051
0.000218156
-0.000465261
0.000251445
-0.000451278
0.000286722
-0.000442217
0.000323254
-0.00042301
0.000362004
-0.000415677
0.000402612
-0.000413622
0.000444761
-0.000406082
0.000486496
-0.000383818
0.000528917
-0.000377597
0.000570828
-0.000366416
0.000612145
-0.0003586
0.000652942
-0.000352993
0.000692282
-0.000345581
0.000730891
-0.000342118
0.000768337
-0.000337976
0.000804732
-0.000334572
0.000840239
-0.000331253
0.000874581
-0.000327398
0.000908043
-0.000322607
0.000940394
-0.000316601
0.000971638
-0.000308617
0.00100162
-0.000298654
0.00103015
-0.000286063
0.00105704
-0.000270211
0.00108198
-0.000251171
0.00110469
-0.000227756
0.00112479
-0.000200514
0.0011419
-0.000167886
0.00115556
-0.000130473
0.0011653
-8.69505e-05
0.00117067
-3.30402e-05
1.35107e-05
0.00117089
1.10654e-05
-0.000608373
1.13298e-05
3.3936e-05
-0.000580356
5.75574e-05
-0.00055458
8.21761e-05
-0.000542226
0.000107868
-0.000525694
0.0001348
-0.00051481
0.000163188
-0.00051102
0.000193079
-0.000499942
0.00022475
-0.000496933
0.000258114
-0.000484642
0.000293374
-0.000477477
0.000329963
-0.000459599
0.000368741
-0.000454455
0.000409495
-0.000454376
0.000452025
-0.000448612
0.000494599
-0.000426391
0.000538217
-0.000421216
0.000581744
-0.000409943
0.000625039
-0.000401895
0.000668113
-0.000396067
0.000709933
-0.0003874
0.00075116
-0.000383345
0.000791273
-0.000378088
0.000830322
-0.000373621
0.000868446
-0.000369377
0.000905296
-0.000364248
0.000941178
-0.000358489
0.000975822
-0.000351245
0.00100924
-0.000342034
0.00104127
-0.000330686
0.00107171
-0.000316498
0.00110037
-0.000298879
0.00112694
-0.000277732
0.00115113
-0.000251953
0.00117254
-0.000221923
0.00119079
-0.000186138
0.0012054
-0.000145077
0.00121587
-9.74281e-05
0.00122177
-3.89323e-05
1.30546e-05
0.00122222
1.36615e-05
-0.000631464
9.42941e-06
3.72757e-05
-0.00060397
6.16586e-05
-0.000578962
8.7028e-05
-0.000567595
0.000113451
-0.000552116
0.00014107
-0.000542429
0.000170074
-0.000540024
0.000200503
-0.000530371
0.000232601
-0.000529031
0.000266307
-0.000518348
0.000301817
-0.000512988
0.000338688
-0.000496469
0.00037768
-0.000493447
0.000418687
-0.000495383
0.000461599
-0.000491525
0.000504918
-0.00046971
0.000549557
-0.000465855
0.000594479
-0.000454865
0.000639518
-0.000446933
0.000684649
-0.000441198
0.000728782
-0.000431534
0.00077251
-0.000427073
0.00081523
-0.000420808
0.00085693
-0.000415321
0.000897707
-0.000410153
0.00093714
-0.000403681
0.000975539
-0.000396888
0.00101259
-0.000388294
0.0010483
-0.000377744
0.0010825
-0.000364885
0.00111496
-0.000348962
0.00114552
-0.00032944
0.00117382
-0.000306027
0.00119959
-0.000277729
0.0012224
-0.000244733
0.00124187
-0.000205607
0.00125749
-0.00016069
0.00126875
-0.000108696
0.00127521
-4.53877e-05
1.23383e-05
0.00127593
1.62702e-05
-0.000655328
7.59445e-06
4.0709e-05
-0.000628409
6.5942e-05
-0.000604195
9.21635e-05
-0.000593817
0.000119433
-0.000579386
0.000147876
-0.000570872
0.000177656
-0.000569805
0.000208809
-0.000561524
0.000241548
-0.00056177
0.000275829
-0.000552629
0.000311835
-0.000548993
0.00034921
-0.000533844
0.000388627
-0.000532864
0.000430047
-0.000536802
0.000473429
-0.000534906
0.000517491
-0.000513772
0.000563071
-0.000511436
0.000609248
-0.000501043
0.000655856
-0.000493541
0.000702853
-0.000488195
0.000749139
-0.00047782
0.000795234
-0.000473168
0.000840478
-0.000466052
0.000884791
-0.000459635
0.000928226
-0.000453588
0.000970288
-0.000445743
0.00101128
-0.000437877
0.00105082
-0.000427842
0.00108893
-0.000415851
0.00112541
-0.000401364
0.00116002
-0.000383568
0.00119258
-0.000362004
0.00122272
-0.000336163
0.00125017
-0.000305184
0.00127447
-0.000269034
0.00129524
-0.000226374
0.00131193
-0.000177382
0.00132405
-0.000120809
0.0013311
-5.2447e-05
1.13363e-05
0.00133211
1.89009e-05
-0.000680041
5.81182e-06
4.42409e-05
-0.000653749
7.0407e-05
-0.000630362
9.75736e-05
-0.000620984
0.000125795
-0.000607607
0.000155181
-0.000600258
0.000185878
-0.000600501
0.000217915
-0.000593561
0.000251479
-0.000595334
0.000286539
-0.000587688
0.000323258
-0.000585713
0.00036135
-0.000571937
0.000401404
-0.000572918
0.000443424
-0.000578823
0.000487415
-0.000578897
0.00053229
-0.000558647
0.000578813
-0.000557959
0.000626183
-0.000548413
0.00067425
-0.000541607
0.000722971
-0.000536916
0.000771272
-0.000526121
0.000819606
-0.000521502
0.000867278
-0.000513724
0.000914149
-0.000506506
0.000960222
-0.000499661
0.00100493
-0.000490455
0.00104856
-0.000481502
0.00109068
-0.000469963
0.00113128
-0.000456448
0.00117014
-0.000440223
0.00120699
-0.000420423
0.00124167
-0.000396678
0.00127375
-0.000368244
0.00130298
-0.000334416
0.00132886
-0.000294915
0.001351
-0.000248518
0.00136884
-0.000195222
0.00138186
-0.000133823
0.00138956
-6.01522e-05
1.00218e-05
0.00139088
2.15612e-05
-0.000705673
4.07152e-06
4.78766e-05
-0.000680065
7.5055e-05
-0.00065754
0.000103254
-0.000649183
0.000132524
-0.000636876
0.000162963
-0.000630698
0.0001947
-0.000632239
0.000227762
-0.000626623
0.000262314
-0.000629886
0.00029833
-0.000623704
0.000335959
-0.000623341
0.000374964
-0.000610942
0.00041586
-0.000613813
0.000458677
-0.00062164
0.000503447
-0.000623667
0.000549249
-0.000604449
0.000596778
-0.000605488
0.000645347
-0.000596983
0.000694828
-0.000591088
0.000745187
-0.000587275
0.000795402
-0.000576336
0.000845868
-0.000571968
0.000895878
-0.000563734
0.000945243
-0.000555871
0.000993918
-0.000548336
0.00104128
-0.000537819
0.00108757
-0.000527795
0.00113232
-0.000514713
0.00117548
-0.000499608
0.00121681
-0.000481552
0.00125601
-0.000459623
0.0012929
-0.000433561
0.00132702
-0.000402369
0.00135813
-0.00036552
0.00138568
-0.000322467
0.00140928
-0.00027212
0.00142833
-0.000214278
0.00144231
-0.000147795
0.0014507
-6.85448e-05
8.36843e-06
0.00145235
2.42572e-05
-0.000732297
2.36609e-06
5.16205e-05
-0.000707428
7.98883e-05
-0.000685808
0.000109204
-0.000678498
0.000139613
-0.000667286
0.000171207
-0.000662292
0.000204099
-0.000665131
0.000238315
-0.000660838
0.000273999
-0.00066557
0.000311132
-0.000660837
0.000349845
-0.000662055
0.000389944
-0.00065104
0.000431874
-0.000655744
0.000475683
-0.000665448
0.000521414
-0.000669399
0.000568287
-0.000651321
0.000616929
-0.00065413
0.000666756
-0.00064681
0.000717662
-0.000641994
0.000769627
-0.00063924
0.000821698
-0.000628407
0.000874221
-0.000624491
0.000926496
-0.000616009
0.000978296
-0.000607671
0.00102953
-0.000599574
0.00107954
-0.000587826
0.00112851
-0.000576768
0.00117593
-0.000562133
0.00122172
-0.000545393
0.00126559
-0.000525425
0.00130723
-0.000501256
0.00134641
-0.000472748
0.00138267
-0.000438632
0.00141574
-0.000398588
0.00144505
-0.000351775
0.00147019
-0.000297258
0.00149053
-0.000234619
0.00150551
-0.00016278
0.00151464
-7.76666e-05
6.34945e-06
0.00151666
2.69938e-05
-0.000759981
6.90242e-07
5.5477e-05
-0.000735911
8.491e-05
-0.000715241
0.000115423
-0.000709011
0.000147062
-0.000698924
0.000179906
-0.000695137
0.000214061
-0.000699285
0.000249548
-0.000696326
0.000286497
-0.000702519
0.000324893
-0.000699232
0.000364852
-0.000702014
0.000406209
-0.000692398
0.000449356
-0.000698891
0.000494342
-0.000710434
0.00054122
-0.000716276
0.000589322
-0.000699423
0.000639213
-0.000704021
0.000690396
-0.000697992
0.000742785
-0.000694383
0.000796373
-0.000692828
0.000850287
-0.00068232
0.000904829
-0.000679034
0.000959322
-0.000670502
0.00101351
-0.000661861
0.00106728
-0.00065334
0.00111992
-0.000640463
0.00117158
-0.000628429
0.0012217
-0.000612252
0.00127015
-0.000593852
0.00131664
-0.000571909
0.00136078
-0.000545399
0.00140236
-0.000514321
0.00144085
-0.000477123
0.00147597
-0.000433707
0.00150711
-0.000382924
0.00153386
-0.000324008
0.00155556
-0.000256312
0.00157161
-0.000178835
0.0015815
-8.75583e-05
3.93912e-06
0.00158392
2.97744e-05
-0.000788796
-9.59454e-07
5.94497e-05
-0.000765586
9.01237e-05
-0.000745915
0.000121916
-0.000740804
0.000154869
-0.000731877
0.000189059
-0.000729326
0.000224579
-0.000734805
0.00026145
-0.000733197
0.000299788
-0.000740857
0.000339582
-0.000739026
0.000380934
-0.000743366
0.000423706
-0.000735169
0.000468238
-0.000743423
0.00051458
-0.000756777
0.000562786
-0.000764482
0.000612283
-0.000748921
0.000663576
-0.000755314
0.000716238
-0.000750654
0.000770204
-0.00074835
0.000825476
-0.0007481
0.000881258
-0.000738103
0.000937819
-0.000735595
0.000994513
-0.000727195
0.00105107
-0.000718417
0.00110734
-0.00070961
0.0011626
-0.000695723
0.00121695
-0.000682783
0.0012698
-0.000665097
0.00132097
-0.000645025
0.00137012
-0.00062106
0.00141685
-0.000592124
0.00146089
-0.000558359
0.00150169
-0.000517925
0.00153894
-0.00047096
0.00157201
-0.000415995
0.00160045
-0.000352447
0.00162356
-0.000279424
0.00164074
-0.000196014
0.00165144
-9.82596e-05
1.11228e-06
0.00165427
3.26017e-05
-0.000818813
-2.58486e-06
6.35419e-05
-0.000796526
9.55331e-05
-0.000777906
0.000128685
-0.000773956
0.00016304
-0.000766232
0.000198667
-0.000764953
0.000235651
-0.000771789
0.000274014
-0.00077156
0.00031386
-0.000780703
0.00035518
-0.000780345
0.000398066
-0.000786252
0.000442398
-0.000779501
0.000488474
-0.000789499
0.000536343
-0.000804646
0.000586055
-0.000814194
0.000637114
-0.00079998
0.000689969
-0.00080817
0.000744253
-0.000804938
0.000799915
-0.000804011
0.000856961
-0.000805145
0.000914674
-0.000795816
0.000973288
-0.000794209
0.0010322
-0.000786104
0.00109112
-0.000777341
0.00114989
-0.000768382
0.00120778
-0.000753606
0.00126483
-0.000739838
0.00132042
-0.000720689
0.00137435
-0.000698953
0.00142622
-0.000672931
0.00147559
-0.000641493
0.00152217
-0.000604935
0.00156536
-0.000561115
0.00160482
-0.000510428
0.00163989
-0.000451065
0.00167009
-0.000382645
0.00169469
-0.000304018
0.00171304
-0.000214368
0.00172459
-0.000109808
-2.15466e-06
0.00172786
3.54773e-05
-0.000850103
-4.18651e-06
6.77564e-05
-0.000828806
0.000101142
-0.000811291
0.000135736
-0.000808549
0.000171578
-0.000802074
0.000208734
-0.000802109
0.000247281
-0.000810336
0.000287243
-0.000811522
0.000328711
-0.000822172
0.00037168
-0.000823314
0.000416232
-0.000830804
0.000462264
-0.000825532
0.000510037
-0.000837272
0.000559595
-0.000854204
0.000610983
-0.000865582
0.00066377
-0.000852767
0.000718354
-0.000862753
0.000774414
-0.000860998
0.000831907
-0.000861504
0.000890844
-0.000864082
0.000950577
-0.000855549
0.00101131
-0.000854944
0.00107248
-0.000847271
0.0011338
-0.000838662
0.00119509
-0.00082967
0.00125561
-0.00081413
0.00131539
-0.000799613
0.00137376
-0.000779057
0.00143047
-0.000755671
0.00148511
-0.000727571
0.00153719
-0.000693567
0.00158637
-0.000654114
0.00163202
-0.000606767
0.00167378
-0.000552184
0.00171092
-0.00048821
0.00174295
-0.000414673
0.00176909
-0.000330157
0.00178867
-0.000233951
0.0018011
-0.000122241
-5.88397e-06
0.00180483
3.8402e-05
-0.000882742
-5.76376e-06
7.20958e-05
-0.000862499
0.000106955
-0.00084615
0.000143072
-0.000844667
0.000180489
-0.000839491
0.000219266
-0.000840886
0.000259476
-0.000850546
0.00030114
-0.000853186
0.000344344
-0.000865375
0.000389082
-0.000868053
0.00043543
-0.000877153
0.000483297
-0.000873399
0.000532913
-0.000886887
0.000584316
-0.000905607
0.000637547
-0.000918813
0.000692227
-0.000907447
0.000748705
-0.000919231
0.0008067
-0.000918993
0.000866174
-0.000920979
0.000927137
-0.000925045
0.000989004
-0.000917416
0.00105195
-0.000917892
0.00111545
-0.000910769
0.00117922
-0.000902432
0.00124307
-0.000893517
0.00130627
-0.000877329
0.00136879
-0.00086214
0.00142997
-0.000840237
0.00148952
-0.000815223
0.00154698
-0.000785028
0.00160182
-0.000748405
0.00165367
-0.000705964
0.00170186
-0.000654954
0.00174597
-0.000596302
0.00178527
-0.000527501
0.00181919
-0.000448597
0.00184693
-0.000357901
0.00186779
-0.00025481
0.00188114
-0.000135591
-1.00957e-05
0.00188536
4.13761e-05
-0.000916803
-7.31498e-06
7.65624e-05
-0.000897686
0.000112975
-0.000882563
0.000150702
-0.000882393
0.000189782
-0.000878571
0.000230274
-0.000881378
0.000272244
-0.000892516
0.000315717
-0.000896659
0.000360767
-0.000910425
0.000407394
-0.000914681
0.000455665
-0.000925423
0.000505499
-0.000923233
0.000557101
-0.000938489
0.000610502
-0.000959008
0.000665737
-0.000974048
0.000722471
-0.000964181
0.00078101
-0.00097777
0.000841104
-0.000979088
0.000902717
-0.000982592
0.000965854
-0.000988181
0.00102998
-0.000981547
0.00109526
-0.000983166
0.00116118
-0.000976694
0.00122748
-0.000968731
0.00129395
-0.000959985
0.00135988
-0.000943256
0.0014252
-0.000927467
0.00148924
-0.000904277
0.00155168
-0.000877657
0.00161201
-0.000845358
0.00166967
-0.000806066
0.00172425
-0.000760549
0.00177504
-0.000705744
0.00182159
-0.000642853
0.0018631
-0.000569009
0.00189899
-0.000484484
0.00192839
-0.000387308
0.00195058
-0.000276993
0.00196488
-0.000149892
-1.48083e-05
0.00196959
4.43994e-05
-0.000952364
-8.83776e-06
8.1158e-05
-0.000934444
0.000119208
-0.000920613
0.00015863
-0.000921816
0.000199465
-0.000919406
0.000241767
-0.00092368
0.000285598
-0.000936348
0.000330984
-0.000942045
0.000377994
-0.000957435
0.000426629
-0.000963315
0.000476948
-0.000975742
0.000528881
-0.000975167
0.000582609
-0.000992217
0.000638158
-0.00101456
0.000695556
-0.00103145
0.000754505
-0.00102313
0.000815272
-0.00103854
0.000877631
-0.00104145
0.000941545
-0.00104651
0.00100701
-0.00105365
0.00107355
-0.00104809
0.00114128
-0.0010509
0.00120975
-0.00104516
0.00127867
-0.00103766
0.00134785
-0.00102916
0.00141658
-0.00101198
0.00148477
-0.000995656
0.00155172
-0.000971235
0.0016171
-0.000943033
0.00168036
-0.000908621
0.00174091
-0.000866616
0.0017983
-0.000817935
0.00185176
-0.000759208
0.00190082
-0.000691906
0.00194461
-0.000612803
0.00198253
-0.000522398
0.00201365
-0.000418435
0.00203721
-0.000300546
0.00205249
-0.000165173
-2.00375e-05
0.00205772
4.74714e-05
-0.000989507
-1.03291e-05
8.58847e-05
-0.000972858
0.000125657
-0.000960386
0.000166865
-0.000963023
0.000209547
-0.000962088
0.000253756
-0.00096789
0.000299552
-0.000982144
0.000346959
-0.000989452
0.000396042
-0.00100652
0.000446803
-0.00101408
0.000499297
-0.00102824
0.000553462
-0.00102933
0.000609456
-0.00104821
0.000667301
-0.0010724
0.000727019
-0.00109116
0.000788342
-0.00108445
0.000851503
-0.0011017
0.000916294
-0.00110624
0.000982676
-0.00111289
0.00105064
-0.00112161
0.00111974
-0.00111719
0.00119008
-0.00112124
0.00126122
-0.0011163
0.00133289
-0.00110933
0.00140487
-0.00110114
0.00147649
-0.00108361
0.00154763
-0.00106679
0.00161758
-0.00104119
0.00168597
-0.00101142
0.00175224
-0.000974888
0.00181575
-0.000930125
0.001876
-0.000878195
0.00193221
-0.000815418
0.00198384
-0.000743534
0.00202999
-0.000658953
0.00207
-0.000562402
0.0021029
-0.000451339
0.00212787
-0.000325514
0.00214416
-0.000181463
-2.57973e-05
0.00214992
5.05912e-05
-0.00102831
-1.17855e-05
9.07448e-05
-0.00101301
0.000132329
-0.00100197
0.000175413
-0.00100611
0.000220039
-0.00100671
0.000266257
-0.00101411
0.000314121
-0.00103001
0.00036366
-0.00103899
0.000414932
-0.00105779
0.000467941
-0.00106709
0.000522737
-0.00108303
0.000579266
-0.00108586
0.000637667
-0.00110661
0.000697955
-0.00113269