/*--------------------------------*- C++ -*----------------------------------*\
| =========                 |                                                 |
| \\      /  F ield         | OpenFOAM: The Open Source CFD Toolbox           |
|  \\    /   O peration     | Version:  5.x                                   |
|   \\  /    A nd           | Web:      www.OpenFOAM.org                      |
|    \\/     M anipulation  |                                                 |
\*---------------------------------------------------------------------------*/
FoamFile
{
    version     2.0;
    format      ascii;
    class       volVectorField;
    location    "400";
    object      U;
}
// * * * * * * * * * * * * * * * * * * * * * * * * * * * * * * * * * * * * * //

dimensions      [0 1 -1 0 0 0 0];

internalField   nonuniform List<vector> 
26000
(
(0.561233 1.87567e-22 -0.245347)
(0.542313 -2.28121e-22 0.191749)
(0.606459 7.52028e-20 0.507865)
(0.716829 -9.8407e-20 0.703386)
(0.841403 1.4452e-19 0.804164)
(0.961695 2.46266e-19 0.842789)
(1.07066 0 0.848054)
(1.16624 0 0.83209)
(1.24718 0 0.804977)
(1.31601 6.14445e-19 0.772993)
(1.3731 -6.74843e-19 0.738323)
(1.42276 0 0.70674)
(1.46246 0 0.667651)
(1.49418 -5.38854e-19 0.628892)
(1.52337 -1.66386e-20 0.597886)
(1.55001 5.44479e-19 0.567213)
(1.57087 0 0.535407)
(1.58829 -1.11704e-18 0.504075)
(1.60275 0 0.474673)
(1.61482 0 0.446601)
(1.62527 0 0.419633)
(1.6334 -5.48239e-19 0.393972)
(1.64017 2.15881e-18 0.369212)
(1.64547 -5.30452e-19 0.345569)
(1.64925 -7.81377e-21 0.322809)
(1.65209 0 0.301008)
(1.65359 -5.10984e-19 0.280241)
(1.65429 1.00625e-18 0.260209)
(1.65396 -1.48067e-18 0.240998)
(1.6528 -9.76312e-19 0.222554)
(1.651 9.59145e-19 0.204836)
(1.64837 0 0.187793)
(1.64514 0 0.171304)
(1.64103 -1.3917e-18 0.155444)
(1.63633 -2.78771e-22 0.140118)
(1.6309 4.56462e-19 0.125406)
(1.62445 2.27408e-19 0.111046)
(1.61853 1.11167e-19 0.0976103)
(1.60456 1.00759e-18 0.0829867)
(1.59251 2.62732e-21 0.0714825)
(0.739893 0 -0.16297)
(0.682292 5.05292e-21 0.0164188)
(0.694204 2.07189e-20 0.208216)
(0.761988 -9.41106e-20 0.370305)
(0.860527 -9.59153e-20 0.4909)
(0.969267 -1.60282e-19 0.571462)
(1.0763 2.65649e-19 0.620704)
(1.17554 -9.92544e-20 0.64389)
(1.26296 -4.85802e-19 0.650023)
(1.33832 -6.12195e-19 0.643716)
(1.40195 6.60961e-19 0.629213)
(1.4554 0 0.612338)
(1.50199 3.6629e-19 0.588396)
(1.54028 -3.62112e-19 0.565619)
(1.57349 0 0.541902)
(1.60298 -4.03033e-19 0.51656)
(1.62822 -1.08641e-20 0.491696)
(1.64964 4.03353e-19 0.466883)
(1.66755 0 0.442873)
(1.68287 8.12285e-19 0.418954)
(1.6958 4.14184e-19 0.395716)
(1.70659 -4.03682e-19 0.373307)
(1.71561 0 0.351276)
(1.72298 7.96718e-19 0.330074)
(1.72892 -9.67847e-21 0.309384)
(1.73369 0 0.289408)
(1.73738 -7.69826e-19 0.270065)
(1.74012 -7.63555e-19 0.251121)
(1.74188 7.60101e-19 0.232738)
(1.74273 0 0.214897)
(1.74281 -3.74965e-19 0.197604)
(1.7421 3.636e-19 0.180824)
(1.74071 0 0.164497)
(1.73857 0 0.148677)
(1.73577 -3.55444e-19 0.133305)
(1.7323 -3.54376e-19 0.118404)
(1.72814 0 0.103795)
(1.72313 -7.10941e-19 0.0899403)
(1.71872 -2.80354e-21 0.0749171)
(1.71417 2.50489e-21 0.0641624)
(0.880829 3.25387e-20 -0.139139)
(0.824375 -5.38993e-20 -0.0342488)
(0.79465 -9.99694e-20 0.0942753)
(0.802479 4.40054e-20 0.230117)
(0.846304 0 0.354831)
(0.915785 -2.21262e-20 0.456594)
(0.999864 -1.39149e-19 0.532463)
(1.08907 5.88473e-20 0.582628)
(1.17612 3.18188e-19 0.611296)
(1.25635 0 0.622843)
(1.32765 -3.87712e-19 0.621672)
(1.38857 2.0375e-19 0.613195)
(1.44301 -4.79777e-19 0.597028)
(1.49103 -1.23746e-20 0.57754)
(1.53269 2.59114e-19 0.55554)
(1.56823 5.55938e-19 0.533083)
(1.59904 2.92253e-19 0.509821)
(1.62595 -2.93629e-19 0.485825)
(1.6488 3.06344e-19 0.461878)
(1.66871 -9.16296e-19 0.437749)
(1.68569 0 0.414356)
(1.70019 3.1137e-19 0.391382)
(1.71268 -3.08746e-19 0.368793)
(1.7232 -6.24168e-19 0.346929)
(1.7321 -6.17928e-19 0.325446)
(1.73949 -6.18779e-19 0.30477)
(1.74555 6.1088e-19 0.284642)
(1.75046 4.6876e-21 0.26503)
(1.75424 1.19662e-18 0.246006)
(1.757 -1.47725e-18 0.227493)
(1.75885 -2.96048e-19 0.209588)
(1.75986 5.78789e-19 0.192166)
(1.76013 -5.77293e-19 0.175285)
(1.75965 2.84719e-19 0.158873)
(1.7585 8.61201e-19 0.142968)
(1.75672 0 0.127519)
(1.75429 5.71703e-19 0.112466)
(1.75132 -4.29204e-19 0.0979065)
(1.74705 -1.25815e-18 0.0822322)
(1.74285 2.98034e-19 0.0700662)
(0.98587 -2.35222e-20 -0.113937)
(0.94106 4.19845e-20 -0.048807)
(0.903113 4.45172e-20 0.0346575)
(0.884814 4.41906e-20 0.133237)
(0.893014 1.27395e-20 0.23681)
(0.926702 7.50363e-20 0.334248)
(0.981143 -1.06448e-19 0.418174)
(1.04942 0 0.483784)
(1.12428 0 0.530258)
(1.19937 -2.30835e-19 0.558665)
(1.27031 5.44328e-19 0.572072)
(1.33349 -4.78979e-19 0.574521)
(1.39104 3.33077e-19 0.568376)
(1.44372 -1.7881e-19 0.556538)
(1.49037 -1.80307e-19 0.539793)
(1.53003 -6.2471e-19 0.521054)
(1.56443 -4.19913e-19 0.500874)
(1.59483 -2.13723e-19 0.47941)
(1.62095 2.26336e-19 0.457405)
(1.64386 0 0.434831)
(1.66353 4.71427e-19 0.412551)
(1.68045 -4.7219e-19 0.390484)
(1.69517 -4.84866e-19 0.368601)
(1.70771 9.62983e-19 0.347261)
(1.7185 0 0.326204)
(1.72761 0 0.305808)
(1.73528 1.44603e-18 0.285916)
(1.7417 3.8186e-22 0.266471)
(1.7469 -3.51785e-21 0.247568)
(1.75103 9.52638e-19 0.22911)
(1.75416 -4.71978e-19 0.21122)
(1.75641 -4.69274e-19 0.19378)
(1.75784 9.34689e-19 0.17685)
(1.7585 2.28766e-19 0.160368)
(1.75845 -2.31434e-19 0.144356)
(1.75776 -4.5958e-19 0.128792)
(1.75641 -4.6457e-19 0.1136)
(1.75457 1.97621e-21 0.0988813)
(1.75158 4.51664e-19 0.0834071)
(1.74836 9.51793e-22 0.0704213)
(1.0556 2.71134e-20 -0.0934537)
(1.02243 4.38864e-20 -0.048416)
(0.988765 0 0.00821912)
(0.963235 7.17586e-21 0.0781009)
(0.953199 1.06675e-20 0.157861)
(0.962262 -9.8588e-20 0.241004)
(0.99082 1.01864e-19 0.321016)
(1.03627 0 0.391586)
(1.09377 0 0.448729)
(1.15765 8.46315e-20 0.490318)
(1.22274 -1.07002e-19 0.51703)
(1.284 -2.17632e-19 0.530793)
(1.34192 0 0.534617)
(1.39678 2.72946e-19 0.531246)
(1.44681 4.37542e-19 0.521063)
(1.48976 -1.52882e-19 0.507098)
(1.5272 3.29121e-19 0.490532)
(1.56055 5.19272e-19 0.472018)
(1.5895 -5.32503e-19 0.452256)
(1.61511 -3.64256e-19 0.431417)
(1.63719 -3.78185e-19 0.410446)
(1.6563 3.79101e-19 0.389348)
(1.67303 3.85156e-19 0.36823)
(1.68738 -7.72312e-19 0.347451)
(1.69985 0 0.326815)
(1.71047 3.9263e-19 0.306725)
(1.71951 -1.15781e-18 0.287048)
(1.72718 -3.88579e-19 0.267764)
(1.73356 -7.76153e-19 0.248974)
(1.7388 7.68432e-19 0.23058)
(1.74299 -3.85104e-19 0.212721)
(1.74625 0 0.195285)
(1.74864 -3.85519e-19 0.178346)
(1.75024 -1.91075e-19 0.161833)
(1.75109 3.92913e-22 0.145774)
(1.75128 5.69537e-19 0.130149)
(1.7508 0 0.11489)
(1.74979 3.84011e-19 0.100088)
(1.74784 7.40421e-19 0.0846696)
(1.74552 2.0309e-19 0.0712247)
(1.1088 -1.98343e-20 -0.0777436)
(1.08356 -3.77016e-20 -0.0442918)
(1.05588 0 -0.00371732)
(1.03082 -3.48293e-20 0.0465511)
(1.01374 1.88849e-20 0.106414)
(1.0089 -9.72735e-24 0.173151)
(1.01898 6.81813e-22 0.242857)
(1.04469 9.97534e-20 0.310288)
(1.08416 -1.36139e-19 0.370666)
(1.1338 0 0.420009)
(1.1891 6.71283e-20 0.456816)
(1.24482 3.37449e-19 0.480668)
(1.30004 6.58985e-21 0.494183)
(1.3545 6.6812e-21 0.499603)
(1.40591 -3.20881e-19 0.496855)
(1.45104 1.23834e-19 0.488521)
(1.49085 -3.73005e-19 0.476268)
(1.52662 -2.73006e-19 0.461238)
(1.55798 -8.44829e-21 0.444189)
(1.58596 2.83048e-19 0.425508)
(1.61023 3.03321e-19 0.406185)
(1.63136 6.01067e-19 0.386344)
(1.64996 -6.15208e-19 0.366221)
(1.66601 3.16561e-19 0.34619)
(1.68005 -6.21565e-19 0.326132)
(1.69208 3.53939e-21 0.306472)
(1.7024 3.23761e-19 0.287116)
(1.71125 -6.39403e-19 0.268085)
(1.7187 0 0.249483)
(1.72494 -9.63917e-19 0.23122)
(1.73005 1.28638e-18 0.213444)
(1.73417 -3.18083e-19 0.196059)
(1.73737 6.39374e-19 0.179149)
(1.73975 0 0.162648)
(1.74136 0 0.146582)
(1.74227 -3.18858e-19 0.130938)
(1.7425 0 0.115654)
(1.74216 0 0.100805)
(1.74102 -3.12726e-19 0.0854475)
(1.73943 -5.11319e-19 0.0717232)
(1.15093 0 -0.0651926)
(1.13126 0 -0.0391257)
(1.10888 -3.64387e-20 -0.00859492)
(1.08679 7.16689e-20 0.0286704)
(1.06843 0 0.0736703)
(1.05717 0 0.125794)
(1.056 -7.76979e-20 0.183415)
(1.06718 -9.93978e-20 0.243174)
(1.09103 1.09755e-19 0.301057)
(1.12625 0 0.35275)
(1.16983 -2.85635e-19 0.395489)
(1.21735 1.3008e-19 0.426936)
(1.26719 -6.87065e-20 0.448812)
(1.31872 0 0.462554)
(1.36936 8.69063e-20 0.467533)
(1.41519 2.90085e-19 0.465468)
(1.45644 7.99771e-21 0.458206)
(1.49402 2.12845e-19 0.447245)
(1.52734 -6.21135e-21 0.433417)
(1.55737 2.29698e-19 0.417342)
(1.58362 -2.48306e-19 0.400031)
(1.60663 -2.56458e-19 0.381746)
(1.62699 7.73466e-19 0.362861)
(1.64465 -5.20303e-19 0.343777)
(1.66019 5.22803e-19 0.324465)
(1.67357 2.65616e-19 0.305372)
(1.68512 0 0.286448)
(1.6951 5.41372e-19 0.267757)
(1.70359 0 0.249412)
(1.71078 0 0.231346)
(1.71676 2.71293e-19 0.213708)
(1.72168 -1.07444e-18 0.196418)
(1.72563 -5.45387e-19 0.179568)
(1.7287 8.05893e-19 0.163104)
(1.73096 1.35989e-19 0.147056)
(1.7325 -5.38924e-19 0.131413)
(1.73334 -2.71806e-19 0.116126)
(1.73357 -6.82397e-20 0.101252)
(1.73309 -3.30697e-19 0.0859427)
(1.7321 1.4586e-19 0.0720403)
(1.18543 1.74256e-20 -0.0549678)
(1.16978 0 -0.0339428)
(1.15161 3.09808e-20 -0.0100284)
(1.13288 4.66474e-21 0.0185458)
(1.11569 0 0.0529396)
(1.10236 0 0.0934488)
(1.09534 4.76215e-20 0.13983)
(1.0971 1.77689e-20 0.19038)
(1.10913 3.87882e-20 0.242396)
(1.13177 -8.35843e-20 0.292222)
(1.16364 -1.30766e-22 0.336821)
(1.2017 5.12171e-20 0.372751)
(1.24426 0 0.400821)
(1.29069 0 0.421604)
(1.33848 1.36683e-19 0.43387)
(1.38338 1.59079e-19 0.438214)
(1.4249 -4.83578e-19 0.436363)
(1.46345 -1.78877e-19 0.429942)
(1.49816 -1.88649e-19 0.419798)
(1.52982 -1.95523e-19 0.406767)
(1.55778 2.00912e-19 0.391859)
(1.58247 0 0.375468)
(1.60447 0 0.358099)
(1.62367 -2.20515e-19 0.34019)
(1.64064 4.40488e-19 0.321811)
(1.65534 -6.73693e-19 0.303438)
(1.66809 -2.26957e-19 0.28507)
(1.67917 2.27556e-19 0.266817)
(1.68866 0 0.248811)
(1.69679 -2.30601e-19 0.231009)
(1.70361 1.65635e-21 0.213568)
(1.70932 -2.26112e-19 0.196423)
(1.71397 0 0.179675)
(1.7177 -4.63415e-19 0.16328)
(1.72057 4.65394e-19 0.147274)
(1.72267 4.66327e-19 0.131655)
(1.72406 7.03931e-19 0.116381)
(1.72479 2.94016e-19 0.101499)
(1.72487 -2.83601e-19 0.0862313)
(1.72438 5.15356e-22 0.0722163)
(1.21438 -2.72502e-20 -0.0464775)
(1.2017 2.72005e-20 -0.0290851)
(1.18682 3.75625e-20 -0.00975707)
(1.17111 -6.36692e-20 0.0128502)
(1.1559 -1.44742e-20 0.0397514)
(1.14269 1.50435e-20 0.0715144)
(1.13321 0 0.108546)
(1.1296 3.37623e-20 0.15023)
(1.13359 3.36314e-20 0.195065)
(1.14644 1.0889e-19 0.240422)
(1.16801 -3.88108e-20 0.283663)
(1.19669 1.34309e-19 0.321062)
(1.23115 -9.53808e-20 0.352779)
(1.27103 -5.69806e-20 0.378712)
(1.31423 1.12471e-19 0.397124)
(1.3566 -2.51581e-19 0.407445)
(1.39708 2.75116e-19 0.411037)
(1.43561 1.49303e-19 0.409413)
(1.47098 -1.522e-19 0.40331)
(1.50373 -1.63898e-19 0.393705)
(1.53302 -4.88273e-21 0.381559)
(1.55915 3.50085e-19 0.36739)
(1.58261 1.80551e-19 0.351825)
(1.60323 0 0.335337)
(1.62156 3.73393e-19 0.318101)
(1.63753 3.89321e-19 0.30062)
(1.65145 1.94717e-19 0.28295)
(1.66361 1.95807e-19 0.26525)
(1.67408 -1.98346e-19 0.247675)
(1.68312 1.9734e-19 0.230214)
(1.69078 4.01296e-19 0.213033)
(1.69724 3.99898e-19 0.196087)
(1.7026 -2.01737e-19 0.179488)
(1.70696 -9.00109e-22 0.1632)
(1.71042 -2.04244e-19 0.147267)
(1.71306 0 0.131694)
(1.71494 -4.09836e-19 0.116453)
(1.71614 -2.05705e-19 0.101581)
(1.7167 3.95753e-19 0.0863536)
(1.71666 1.11368e-19 0.0722705)
(1.23913 1.40568e-20 -0.0393089)
(1.22871 -2.74502e-20 -0.0246435)
(1.21641 -2.66732e-20 -0.0086409)
(1.20324 0 0.00972648)
(1.19008 0 0.0312757)
(1.17793 5.62883e-20 0.056579)
(1.1679 0 0.0862591)
(1.16164 -1.16594e-19 0.120288)
(1.1607 -3.05466e-20 0.158007)
(1.16661 6.51635e-20 0.197759)
(1.18 8.71997e-22 0.237579)
(1.20036 -1.90971e-19 0.274041)
(1.22686 8.32471e-20 0.306988)
(1.25958 -2.39744e-22 0.335946)
(1.29703 9.37079e-20 0.358896)
(1.33556 3.22811e-19 0.374253)
(1.37374 0 0.382891)
(1.41116 -2.44328e-19 0.386002)
(1.44635 1.33596e-19 0.384087)
(1.47954 -1.34313e-19 0.378163)
(1.50968 1.47951e-19 0.369072)
(1.53691 -1.47444e-19 0.35743)
(1.56159 -3.13565e-19 0.343948)
(1.58346 -1.55935e-19 0.329127)
(1.60304 -4.86833e-19 0.313251)
(1.6202 -5.00498e-19 0.296844)
(1.63525 3.35139e-19 0.280027)
(1.64846 -3.41238e-19 0.26301)
(1.6599 -5.12502e-19 0.245971)
(1.66982 0 0.228937)
(1.6783 -1.74965e-19 0.212088)
(1.68552 3.4796e-19 0.195401)
(1.69156 1.02563e-21 0.179)
(1.69655 -1.74853e-19 0.162863)
(1.70058 -3.54037e-19 0.147039)
(1.70374 0 0.131542)
(1.70611 0 0.116354)
(1.70775 9.02623e-20 0.101512)
(1.70875 -6.08339e-19 0.0863308)
(1.7091 -1.93031e-19 0.0722124)
(1.26061 0 -0.0331713)
(1.25196 -6.43986e-21 -0.0206179)
(1.24168 1.00196e-22 -0.00711617)
(1.23061 6.29965e-21 0.0081345)
(1.21933 5.12848e-20 0.0257768)
(1.20852 2.76068e-20 0.0463033)
(1.19891 -2.62244e-20 0.0703476)
(1.19165 7.92792e-20 0.0981393)
(1.18799 -2.79738e-20 0.129519)
(1.18939 2.95802e-20 0.163558)
(1.19676 4.56758e-22 0.198965)
(1.21036 3.34814e-20 0.232902)
(1.22979 0 0.265147)
(1.25552 -3.87777e-19 0.295144)
(1.28674 1.61654e-19 0.320853)
(1.32053 8.80822e-20 0.339972)
(1.35538 0 0.352866)
(1.39069 2.13139e-19 0.360313)
(1.4248 0 0.362482)
(1.4577 -2.32722e-19 0.360316)
(1.48813 0 0.354461)
(1.51603 2.61528e-19 0.345575)
(1.54162 1.48892e-21 0.334416)
(1.56452 5.54899e-19 0.321495)
(1.58519 -2.7989e-19 0.307191)
(1.60344 2.93373e-19 0.292044)
(1.61953 -3.75758e-21 0.276241)
(1.63375 2.96778e-19 0.260043)
(1.64612 6.0252e-19 0.243655)
(1.65692 3.02043e-19 0.227145)
(1.6662 3.05453e-19 0.210708)
(1.67416 1.53836e-19 0.194347)
(1.68087 -3.10469e-19 0.178199)
(1.68648 1.54334e-19 0.162258)
(1.69108 6.27568e-19 0.146583)
(1.69475 -3.12723e-19 0.131195)
(1.69758 -3.96534e-19 0.116087)
(1.69964 -1.94479e-22 0.101296)
(1.70106 7.32498e-19 0.0861731)
(1.70177 1.29643e-19 0.0720465)
(1.27947 0 -0.0278564)
(1.27222 2.44384e-20 -0.016979)
(1.26358 0 -0.00541419)
(1.25421 0 0.00747459)
(1.24457 -5.76482e-20 0.0221931)
(1.23512 -8.28695e-20 0.0391432)
(1.22632 -4.93026e-20 0.0588909)
(1.21898 -5.08946e-20 0.0817462)
(1.21405 0 0.107802)
(1.21273 -2.70612e-20 0.136605)
(1.216 2.81687e-20 0.167394)
(1.22447 -6.17669e-20 0.19798)
(1.23809 0 0.228222)
(1.25755 1.35861e-19 0.257664)
(1.28266 -2.90637e-19 0.284465)
(1.31133 -1.61398e-19 0.305951)
(1.34216 -8.6361e-20 0.322062)
(1.37454 8.9593e-20 0.333161)
(1.40677 0 0.339049)
(1.43864 2.05571e-19 0.340506)
(1.46874 0 0.337914)
(1.49682 -4.82697e-21 0.331913)
(1.52294 -2.42709e-19 0.323252)
(1.54659 2.40291e-19 0.312423)
(1.56814 2.54046e-19 0.299882)
(1.58732 -2.53523e-19 0.286172)
(1.60437 -2.59562e-19 0.271544)
(1.61951 3.11131e-21 0.256303)
(1.63276 -7.93922e-19 0.240686)
(1.6444 -1.07133e-18 0.224802)
(1.65446 -4.49097e-23 0.208863)
(1.66314 -8.12843e-19 0.1929)
(1.67052 -2.7488e-19 0.177066)
(1.67674 0 0.161372)
(1.68189 -2.80153e-19 0.145889)
(1.68606 2.80191e-19 0.130645)
(1.68935 2.84123e-19 0.115647)
(1.69183 7.13871e-20 0.100932)
(1.69364 -3.44937e-19 0.0858845)
(1.69469 -1.53554e-19 0.0717739)
(1.29619 0 -0.0232107)
(1.29007 -5.0586e-20 -0.0136894)
(1.28276 -5.42005e-21 -0.00366067)
(1.2748 -3.31783e-20 0.00739122)
(1.26655 0 0.0198681)
(1.25835 6.57277e-20 0.0340927)
(1.25049 2.16503e-20 0.0505452)
(1.24355 6.98313e-20 0.069534)
(1.2382 -2.46242e-20 0.0912561)
(1.23541 0 0.115538)
(1.23604 -5.3314e-20 0.141982)
(1.24086 -5.89517e-22 0.168976)
(1.24998 0 0.196501)
(1.2642 -1.2359e-19 0.22429)
(1.28378 6.32869e-20 0.250825)
(1.3074 1.40294e-19 0.273371)
(1.33392 7.33561e-20 0.291576)
(1.3628 1.63377e-19 0.305459)
(1.39251 -1.6765e-19 0.314487)
(1.42266 1.77519e-19 0.319224)
(1.45183 0 0.319756)
(1.47957 -1.98971e-19 0.316639)
(1.50579 2.0499e-19 0.310557)
(1.52986 0 0.301953)
(1.55203 4.33672e-19 0.291329)
(1.57197 -2.28483e-19 0.27921)
(1.58982 -4.58686e-19 0.265905)
(1.60579 4.67702e-19 0.251757)
(1.61986 2.37771e-19 0.23703)
(1.63228 1.43495e-18 0.221875)
(1.64309 -7.23919e-19 0.206524)
(1.65247 7.31844e-19 0.191037)
(1.6605 -2.42003e-19 0.175582)
(1.66731 -2.45532e-19 0.160189)
(1.673 0 0.144944)
(1.67767 0 0.129884)
(1.68141 0 0.115028)
(1.68429 -6.41111e-20 0.100417)
(1.68649 9.28099e-20 0.0854649)
(1.68787 1.04052e-19 0.0713936)
(1.31114 -1.07711e-20 -0.0191181)
(1.30595 2.08385e-20 -0.0107122)
(1.29972 0 -0.0019253)
(1.29293 4.03638e-20 0.00766668)
(1.28587 -4.16672e-20 0.0183869)
(1.27877 0 0.0304947)
(1.27185 0 0.0443897)
(1.26551 -6.46211e-20 0.0603472)
(1.26023 -2.35563e-20 0.0785922)
(1.25676 4.67113e-20 0.0990997)
(1.25581 1.42974e-19 0.121695)
(1.25815 -5.11655e-20 0.145226)
(1.26397 5.319e-20 0.169782)
(1.27404 5.51934e-20 0.195288)
(1.28892 -1.17755e-19 0.220588)
(1.3079 -6.39204e-20 0.24311)
(1.33014 6.5696e-20 0.262353)
(1.3553 1.42604e-19 0.278093)
(1.38204 0 0.289551)
(1.40994 -3.19841e-19 0.297063)
(1.43764 3.34922e-19 0.300419)
(1.46453 3.5107e-19 0.300049)
(1.49041 -3.64681e-19 0.296523)
(1.51453 -3.77293e-19 0.290198)
(1.53704 -3.90726e-19 0.281588)
(1.55749 0 0.27118)
(1.57598 2.04749e-19 0.259324)
(1.59265 -2.08773e-19 0.24639)
(1.60745 0 0.232666)
(1.62059 -4.30645e-19 0.218343)
(1.63209 4.36865e-19 0.203669)
(1.64214 2.19153e-19 0.188737)
(1.65078 4.43599e-19 0.173728)
(1.65817 -4.43559e-19 0.158694)
(1.6644 2.24525e-19 0.143735)
(1.66955 0 0.128902)
(1.67373 -2.28617e-19 0.114222)
(1.67701 0 0.0997444)
(1.67958 -2.51388e-19 0.0849121)
(1.68128 3.21578e-20 0.0709035)
(1.3246 9.9143e-21 -0.0154899)
(1.32018 0 -0.00801397)
(1.31486 0 -0.000247333)
(1.30904 -9.58439e-21 0.00816302)
(1.30298 4.80232e-20 0.0174801)
(1.29685 0 0.0279138)
(1.29079 2.04903e-20 0.039795)
(1.28511 2.05734e-20 0.0533586)
(1.28015 4.13643e-20 0.0688214)
(1.27648 0 0.0862306)
(1.27468 4.60229e-20 0.105538)
(1.27542 4.75454e-20 0.125927)
(1.27891 0 0.147566)
(1.28585 0 0.170534)
(1.29692 1.06212e-19 0.194007)
(1.31187 -1.15417e-19 0.215709)
(1.33016 0 0.235098)
(1.35162 1.69709e-21 0.251826)
(1.37519 -1.31638e-19 0.264959)
(1.40049 1.4534e-19 0.274642)
(1.42627 -4.51347e-19 0.280403)
(1.45187 -3.09553e-19 0.282518)
(1.47698 -6.51755e-19 0.281415)
(1.50079 8.46317e-19 0.277335)
(1.52331 -1.75521e-19 0.270771)
(1.54403 1.78689e-19 0.262146)
(1.56297 -1.84586e-19 0.251833)
(1.58018 3.74729e-19 0.240214)
(1.59558 5.68274e-19 0.227594)
(1.60936 0 0.214197)
(1.62149 1.97082e-19 0.200286)
(1.63215 -5.88347e-19 0.185986)
(1.64139 -8.01194e-19 0.171491)
(1.64933 2.01313e-19 0.156875)
(1.65606 6.09656e-19 0.142253)
(1.66169 0 0.127688)
(1.6663 1.1877e-21 0.113222)
(1.66997 2.61794e-19 0.0989096)
(1.6729 -4.97475e-20 0.0842231)
(1.67491 -1.1303e-19 0.0703009)
(1.33679 0 -0.0122569)
(1.33301 0 -0.00556541)
(1.32845 0 0.00135125)
(1.32346 0 0.00879012)
(1.31824 0 0.0169677)
(1.31295 -1.84503e-20 0.0260551)
(1.30767 -5.63385e-20 0.036327)
(1.30265 0 0.0479801)
(1.29812 7.99217e-20 0.0612089)
(1.29453 -4.08808e-20 0.0760906)
(1.29232 -4.09268e-20 0.092642)
(1.29209 -8.97822e-20 0.110286)
(1.29401 0 0.12923)
(1.29867 0 0.149659)
(1.30677 0 0.171024)
(1.31839 -1.07166e-19 0.191391)
(1.33319 2.19273e-19 0.210255)
(1.35119 -1.14063e-21 0.227228)
(1.3716 3.68511e-19 0.241325)
(1.39414 -5.092e-19 0.252544)
(1.41772 1.36613e-19 0.260217)
(1.44166 2.82275e-19 0.264462)
(1.46563 1.46728e-19 0.265552)
(1.48877 -4.60023e-19 0.263597)
(1.51099 1.58036e-19 0.259038)
(1.53172 1.62902e-19 0.252214)
(1.55087 1.61995e-19 0.243497)
(1.56846 1.68082e-19 0.233266)
(1.58433 -3.27892e-21 0.22183)
(1.59864 0 0.209441)
(1.61132 0 0.196373)
(1.62253 1.79248e-19 0.182777)
(1.63231 5.45835e-19 0.168861)
(1.64077 0 0.154723)
(1.648 -7.41528e-19 0.140488)
(1.65407 2.77742e-19 0.126237)
(1.6591 -9.32444e-20 0.112022)
(1.66315 -1.43834e-19 0.0979075)
(1.66643 -4.5389e-20 0.0833945)
(1.66875 1.03474e-19 0.0695831)
(1.3479 4.42252e-21 -0.00936399)
(1.34466 -4.40506e-21 -0.00334114)
(1.34073 -3.48546e-20 0.00285893)
(1.33644 3.46227e-20 0.00948821)
(1.33194 0 0.0167267)
(1.32737 -3.53278e-20 0.0247153)
(1.32279 3.52427e-20 0.033683)
(1.31838 0 0.0437933)
(1.31432 -7.38066e-20 0.0552152)
(1.31096 0 0.0680339)
(1.30864 0 0.0822962)
(1.30785 -4.34177e-20 0.0975898)
(1.30875 4.25984e-20 0.114137)
(1.3118 -8.95443e-20 0.13218)
(1.31767 1.8468e-19 0.151379)
(1.32661 -9.76172e-20 0.170135)
(1.33847 -9.90811e-20 0.188019)
(1.35339 -3.19644e-19 0.204665)
(1.37082 -2.24538e-19 0.219112)
(1.39058 2.32754e-19 0.231267)
(1.41181 -1.24995e-19 0.240335)
(1.43387 1.25742e-19 0.2463)
(1.4564 0 0.249281)
(1.47856 2.77581e-19 0.249257)
(1.50018 2.8197e-19 0.246593)
(1.52065 -5.89733e-19 0.241528)
(1.5398 -4.47779e-19 0.234416)
(1.55757 -1.52458e-19 0.22561)
(1.57376 -1.60359e-19 0.215415)
(1.58847 4.73779e-19 0.204099)
(1.60161 0 0.19194)
(1.61331 3.24162e-19 0.179113)
(1.62357 3.30162e-19 0.165839)
(1.63251 -1.66884e-19 0.152233)
(1.64019 6.77845e-19 0.138436)
(1.64669 -5.10501e-19 0.124543)
(1.65212 2.60266e-19 0.110618)
(1.65654 8.72433e-20 0.0967341)
(1.66016 2.97774e-19 0.0824236)
(1.66277 4.71292e-20 0.068748)
(1.35805 -4.18e-21 -0.00676733)
(1.35527 -2.93029e-20 -0.0013194)
(1.35189 -4.49741e-22 0.0042702)
(1.34819 -4.88829e-20 0.0102169)
(1.34431 -1.64556e-20 0.0166716)
(1.34036 3.29394e-20 0.0237513)
(1.3364 0 0.031648)
(1.33255 -3.52394e-20 0.0404977)
(1.32896 -1.06714e-19 0.0504448)
(1.32589 3.64412e-20 0.061572)
(1.32362 -3.74646e-20 0.0739371)
(1.32256 7.75907e-20 0.0872413)
(1.32282 0 0.101703)
(1.32477 8.24256e-20 0.117589)
(1.32901 1.36644e-21 0.134704)
(1.33587 9.06773e-20 0.151752)
(1.34532 0 0.168391)
(1.35758 -1.20278e-21 0.184309)
(1.37231 3.07954e-19 0.19862)
(1.38945 0 0.211189)
(1.40831 2.25784e-19 0.221162)
(1.42835 2.32148e-19 0.228417)
(1.44924 0 0.232944)
(1.47017 -2.54277e-19 0.2346)
(1.49094 5.13467e-19 0.233661)
(1.5109 7.65198e-21 0.230261)
(1.52982 3.9763e-21 0.224713)
(1.54758 0 0.217334)
(1.56393 -2.44209e-21 0.208409)
(1.57891 -2.91094e-19 0.198209)
(1.5924 -2.94047e-19 0.187011)
(1.6045 -2.26994e-21 0.175009)
(1.61518 -1.54455e-19 0.162429)
(1.62454 4.5497e-19 0.149408)
(1.63264 3.09089e-19 0.136097)
(1.63955 -3.10887e-19 0.122603)
(1.64535 -3.16503e-19 0.109006)
(1.65012 0 0.0953869)
(1.65406 -1.96153e-19 0.0813084)
(1.65696 1.29675e-19 0.0677941)
(1.36737 0 -0.00443136)
(1.36499 3.13471e-20 0.000518245)
(1.36207 4.64581e-20 0.00558303)
(1.35888 -4.6171e-22 0.0109482)
(1.35554 -6.22523e-23 0.0167412)
(1.35213 -4.73461e-20 0.0230602)
(1.3487 1.3163e-22 0.030067)
(1.34535 1.30881e-19 0.0378747)
(1.3422 1.00488e-19 0.0466064)
(1.33946 6.97347e-20 0.0563375)
(1.33734 -7.07808e-20 0.067127)
(1.33618 7.40875e-20 0.0787544)
(1.33607 -7.61726e-20 0.0914239)
(1.33729 4.85435e-22 0.105404)
(1.34035 8.15998e-20 0.120597)
(1.34563 8.57191e-20 0.13596)
(1.35316 8.8802e-20 0.151235)
(1.3632 2.76321e-19 0.166175)
(1.37558 -9.47403e-20 0.179997)
(1.3903 0 0.192558)
(1.40689 1.42909e-22 0.203003)
(1.42489 -3.46661e-22 0.211139)
(1.44403 -2.24737e-19 0.216855)
(1.46356 2.2789e-19 0.219906)
(1.48327 2.36907e-19 0.22048)
(1.5025 3.49435e-21 0.218602)
(1.52099 -2.48629e-19 0.214537)
(1.53855 -5.1452e-19 0.208547)
(1.55489 -3.30579e-21 0.200889)
(1.57 -2.64595e-19 0.191825)
(1.58373 2.71712e-19 0.181623)
(1.59613 -5.46092e-19 0.170488)
(1.60717 -1.96449e-21 0.158648)
(1.6169 -2.80766e-19 0.146256)
(1.62537 -4.29039e-19 0.133473)
(1.63264 4.30713e-19 0.12042)
(1.6388 2.93042e-19 0.107186)
(1.64389 -7.4154e-20 0.0938652)
(1.64814 7.20459e-20 0.0800482)
(1.65131 -3.89765e-22 0.0667207)
(1.37597 3.75861e-21 -0.00232718)
(1.37392 3.73009e-21 0.00218741)
(1.3714 -3.71808e-20 0.0067973)
(1.36865 1.43743e-20 0.0116625)
(1.36577 -4.99832e-23 0.0168915)
(1.36283 4.54565e-20 0.0225669)
(1.35987 0 0.0288261)
(1.35697 0 0.0357636)
(1.35423 -1.59447e-19 0.0434838)
(1.35181 -3.2291e-20 0.0520536)
(1.34989 -6.77129e-20 0.0615287)
(1.34874 -7.0618e-20 0.0717431)
(1.34843 7.04348e-20 0.0828821)
(1.34918 -2.95839e-19 0.0952021)
(1.35142 2.29364e-19 0.108667)
(1.35551 1.61788e-19 0.12244)
(1.36154 -1.6227e-19 0.136335)
(1.36977 -8.3554e-20 0.150168)
(1.38014 0 0.163269)
(1.39273 0 0.175505)
(1.40721 -1.92158e-19 0.186065)
(1.42324 1.339e-23 0.194717)
(1.44059 -2.11095e-21 0.201278)
(1.45863 4.24101e-19 0.20543)
(1.47712 -6.51923e-19 0.207277)
(1.49546 -4.25211e-21 0.206747)
(1.51332 2.28697e-19 0.204044)
(1.53051 2.368e-19 0.199372)
(1.54668 4.78667e-19 0.192948)
(1.56179 -2.41633e-19 0.185016)
(1.57564 2.5054e-19 0.175824)
(1.58824 2.55325e-19 0.165582)
(1.59954 -1.02321e-18 0.154516)
(1.60958 0 0.142792)
(1.61837 0 0.130575)
(1.62597 2.64048e-19 0.117998)
(1.63244 -2.69051e-19 0.105163)
(1.63784 0 0.0921706)
(1.64239 0 0.0786437)
(1.64581 -3.60729e-22 0.0655283)
(1.38391 0 -0.000431133)
(1.38215 7.12365e-21 0.00370126)
(1.37999 2.10062e-20 0.00791394)
(1.37761 2.7969e-20 0.0123457)
(1.37512 2.83197e-20 0.0170895)
(1.37259 -8.58082e-20 0.0222152)
(1.37004 0 0.0278402)
(1.36755 -2.97852e-20 0.0340437)
(1.36518 1.2126e-19 0.0409143)
(1.36307 -3.13423e-20 0.0485103)
(1.36136 -4.37107e-22 0.0568822)
(1.3603 1.33125e-19 0.0659027)
(1.35991 1.35224e-19 0.0757369)
(1.36036 -1.41592e-19 0.0866216)
(1.36203 -7.08187e-20 0.0985581)
(1.36524 -7.43938e-20 0.110874)
(1.37011 -7.68968e-20 0.123438)
(1.37689 -1.59753e-19 0.136123)
(1.38559 0 0.148369)
(1.39633 0 0.160062)
(1.40892 0 0.170463)
(1.4231 -1.84481e-19 0.179322)
(1.43871 -1.75314e-21 0.186419)
(1.45522 1.90837e-21 0.191387)
(1.47241 3.70239e-21 0.194259)
(1.48971 -2.0632e-19 0.194881)
(1.50681 6.34611e-19 0.193394)
(1.52347 0 0.189939)
(1.53932 -4.44741e-19 0.184688)
(1.55429 2.25515e-19 0.177859)
(1.56814 6.86556e-19 0.169672)
(1.58085 6.96463e-19 0.160335)
(1.59233 7.12175e-19 0.150065)
(1.6026 -4.75569e-19 0.139035)
(1.61167 0 0.127415)
(1.61954 1.21551e-19 0.115347)
(1.6263 5.00545e-19 0.102941)
(1.63198 -1.26312e-19 0.0903068)
(1.63679 0 0.0770973)
(1.64045 -6.94095e-20 0.0642185)
(1.39127 0 0.00127631)
(1.38977 3.41156e-20 0.00507092)
(1.3879 -6.74407e-21 0.00893445)
(1.38586 0 0.0129877)
(1.38372 -2.70745e-20 0.0173106)
(1.38154 8.26242e-20 0.0219628)
(1.37935 -5.60277e-20 0.0270449)
(1.37721 2.8463e-20 0.0326235)
(1.37517 -8.7129e-20 0.0387741)
(1.37335 1.19469e-19 0.0455471)
(1.37187 -1.22366e-19 0.0529869)
(1.37091 -6.29122e-20 0.0609942)
(1.37052 -6.49107e-20 0.0697148)
(1.3708 1.3219e-19 0.0793625)
(1.37208 -2.051e-19 0.08996)
(1.37466 7.1347e-20 0.100964)
(1.37865 1.46333e-19 0.112286)
(1.38427 -1.51793e-19 0.123843)
(1.3916 1.55534e-19 0.135172)
(1.40077 0 0.146188)
(1.41169 1.68342e-19 0.156229)
(1.42418 -3.40454e-19 0.165053)
(1.43815 0 0.172421)
(1.45315 3.66329e-19 0.177945)
(1.469 -1.84705e-19 0.181601)
(1.4852 0 0.183172)
(1.50142 -5.91037e-19 0.182737)
(1.51742 1.99857e-19 0.180378)
(1.53282 -4.09285e-19 0.176218)
(1.54752 2.10205e-19 0.17044)
(1.56126 -2.14084e-19 0.163233)
(1.57398 -2.7161e-21 0.154795)
(1.58556 -2.19848e-19 0.14533)
(1.59599 4.42641e-19 0.135013)
(1.60526 6.74387e-19 0.124013)
(1.61337 1.11423e-19 0.11248)
(1.62037 1.14278e-19 0.10053)
(1.62629 -2.93862e-19 0.0882797)
(1.63135 8.65467e-20 0.0754129)
(1.63524 -3.15661e-20 0.0627944)
(1.39812 3.2509e-21 0.00281139)
(1.39683 -2.26385e-20 0.00630583)
(1.39523 1.9422e-20 0.00986056)
(1.39347 -3.86806e-20 0.0135811)
(1.39163 -3.9132e-20 0.0175361)
(1.38976 -5.22838e-20 0.0217771)
(1.38789 -5.22805e-22 0.0263905)
(1.38606 0 0.0314328)
(1.38432 -5.5855e-20 0.0369683)
(1.38277 5.73738e-20 0.0430401)
(1.38149 5.78955e-20 0.0496871)
(1.38067 0 0.0568302)
(1.38031 6.11281e-20 0.0645973)
(1.38052 1.27345e-19 0.0731794)
(1.38154 1.28677e-19 0.0826099)
(1.38366 0 0.0924462)
(1.38697 1.08604e-21 0.102632)
(1.39169 8.59087e-22 0.113117)
(1.3979 -2.94587e-19 0.123523)
(1.40576 3.00952e-19 0.133789)
(1.41524 0 0.143338)
(1.42622 -1.61179e-19 0.151945)
(1.43867 -1.66807e-19 0.15937)
(1.45223 0 0.165223)
(1.46675 -1.75018e-19 0.169441)
(1.4818 -1.807e-19 0.171762)
(1.49707 1.8042e-19 0.17221)
(1.51231 1.85811e-19 0.170812)
(1.52717 5.7075e-19 0.167642)
(1.54149 5.79466e-19 0.162846)
(1.555 -7.91297e-19 0.156578)
(1.56763 -2.03455e-19 0.149018)
(1.57922 8.14755e-19 0.140353)
(1.58974 -3.35572e-22 0.130755)
(1.59915 -4.1899e-19 0.120391)
(1.60745 -7.41822e-19 0.109412)
(1.61465 -1.0899e-19 0.0979406)
(1.62079 1.14881e-21 0.0860977)
(1.62606 -2.42067e-19 0.0735964)
(1.63015 -8.71518e-20 0.0612604)
(1.40449 0 0.00418771)
(1.40339 0 0.00741408)
(1.40202 -1.22493e-20 0.0106941)
(1.40051 -1.25364e-20 0.0141202)
(1.39893 4.95432e-20 0.0177518)
(1.39734 5.05902e-20 0.021633)
(1.39574 -4.54448e-22 0.0258388)
(1.39419 0 0.030417)
(1.39271 1.06209e-19 0.0354228)
(1.3914 -1.0906e-19 0.0408929)
(1.39033 5.57071e-20 0.046861)
(1.38965 -5.77077e-20 0.0532629)
(1.38935 1.76753e-19 0.0602106)
(1.38953 -1.8056e-19 0.0678731)
(1.39039 0 0.0762883)
(1.39217 0 0.085093)
(1.39497 0 0.0942532)
(1.39898 0 0.103742)
(1.4043 -1.3975e-19 0.113252)
(1.41107 1.12502e-21 0.122745)
(1.41932 1.42332e-21 0.131723)
(1.42898 1.68088e-21 0.139984)
(1.44005 1.2222e-21 0.1473)
(1.45226 -1.58323e-19 0.153296)
(1.4655 -1.63626e-19 0.157881)
(1.4794 5.02439e-19 0.160765)
(1.49368 -8.52723e-19 0.16193)
(1.50811 6.97985e-19 0.161352)
(1.52232 -8.87327e-19 0.15906)
(1.53617 -3.6245e-19 0.155163)
(1.54937 3.69575e-19 0.149776)
(1.56181 -2.03247e-21 0.14306)
(1.57333 -5.72407e-19 0.135179)
(1.58386 -1.93903e-19 0.126298)
(1.59336 0 0.116575)
(1.60178 4.93167e-19 0.106164)
(1.60915 -5.02318e-19 0.0951874)
(1.61547 2.05281e-19 0.083771)
(1.62092 4.03221e-19 0.0716551)
(1.62519 -3.29581e-22 0.0596219)
(1.41043 0 0.00541688)
(1.40951 -1.19046e-20 0.00840268)
(1.40833 4.74238e-20 0.0114371)
(1.40704 1.17352e-20 0.0146011)
(1.40569 0 0.0179463)
(1.40434 -9.67491e-20 0.0215108)
(1.40298 4.89295e-20 0.0253596)
(1.40167 0 0.0295334)
(1.40043 0 0.0340797)
(1.39934 2.40181e-22 0.0390297)
(1.39845 1.06818e-19 0.0444124)
(1.3979 -5.52125e-20 0.050175)
(1.39769 -1.11788e-19 0.0564153)
(1.39787 -1.15948e-19 0.0632822)
(1.39863 0 0.0708139)
(1.40017 -1.23178e-19 0.07871)
(1.40259 1.24806e-19 0.0869521)
(1.40605 7.33967e-22 0.0955296)
(1.41064 -9.73734e-22 0.104194)
(1.41652 1.35118e-19 0.112922)
(1.42373 -1.39021e-19 0.12129)
(1.43224 0 0.129122)